test                                                                    
SP        RB3LYP                                                      6-31G(d)            
Number of atoms                            I                4
Info1-9                                    I   N=           9
          14          14           0           0           0         110
           1          18        -502
Full Title                                 C   N=           1
test        
Route                                      C   N=           3
#p b3lyp/6-31g(d) pop=nboread       
Charge                                     I                0
Multiplicity                               I                1
Number of electrons                        I               16
Number of alpha electrons                  I                8
Number of beta electrons                   I                8
Number of basis functions                  I               34
Number of independent functions            I               34
Number of point charges in /Mol/           I                0
Number of translation vectors              I                0
Atomic numbers                             I   N=           4
           6           1           8           1
Nuclear charges                            R   N=           4
  6.00000000E+00  1.00000000E+00  8.00000000E+00  1.00000000E+00
Current cartesian coordinates              R   N=          12
  0.00000000E+00  0.00000000E+00 -9.99408722E-01  0.00000000E+00  1.77209502E+00
 -2.12362788E+00  0.00000000E+00  6.84227766E-49  1.28046351E+00 -2.17019049E-16
 -1.77209502E+00 -2.12362788E+00
Number of symbols in /Mol/                 I                0
Force Field                                I                0
Atom Types                                 C   N=           4
                                                
Int Atom Types                             I   N=           4
           0           0           0           0
MM charges                                 R   N=           4
  0.00000000E+00  0.00000000E+00  0.00000000E+00  0.00000000E+00
Integer atomic weights                     I   N=           4
          12           1          16           1
Real atomic weights                        R   N=           4
  1.20000000E+01  1.00782504E+00  1.59949146E+01  1.00782504E+00
Atom fragment info                         I   N=           4
           0           0           0           0
Atom residue num                           I   N=           4
           0           0           0           0
Nuclear spins                              I   N=           4
           0           1           0           1
Nuclear ZEff                               R   N=           4
 -3.60000000E+00 -1.00000000E+00 -5.60000000E+00 -1.00000000E+00
Nuclear ZNuc                               R   N=           4
  6.00000000E+00  1.00000000E+00  8.00000000E+00  1.00000000E+00
Nuclear QMom                               R   N=           4
  0.00000000E+00  0.00000000E+00  0.00000000E+00  0.00000000E+00
Nuclear GFac                               R   N=           4
  0.00000000E+00  2.79284600E+00  0.00000000E+00  2.79284600E+00
MicOpt                                     I   N=           4
          -1          -1          -1          -1
Number of residues                         I                0
Number of secondary structures             I                0
SymInf integers                            I   N=          26
           2           4           1           1           1          -1
          -1           1          -1           1           1           1
          -1           1           0           0           0           0
           0           0           0           0           0           0
           0           0
RotTr to input orientation                 R   N=          12
 -1.00000000E+00 -7.33790813E-17 -6.12323400E-17 -7.33790813E-17  1.00000000E+00
 -4.49317285E-33  6.12323400E-17  0.00000000E+00 -1.00000000E+00  0.00000000E+00
  0.00000000E+00  2.94608303E-05
Number of contracted shells                I               12
Number of primitive shells                 I               30
Pure/Cartesian d shells                    I                1
Pure/Cartesian f shells                    I                0
Highest angular momentum                   I                2
Largest degree of contraction              I                6
Shell types                                I   N=          12
           0          -1          -1           2           0           0
           0          -1          -1           2           0           0
Number of primitives per shell             I   N=          12
           6           3           1           1           3           1
           6           3           1           1           3           1
Shell to atom map                          I   N=          12
           1           1           1           1           2           2
           3           3           3           3           4           4
Primitive exponents                        R   N=          30
  3.04752488E+03  4.57369518E+02  1.03948685E+02  2.92101553E+01  9.28666296E+00
  3.16392696E+00  7.86827235E+00  1.88128854E+00  5.44249258E-01  1.68714478E-01
  8.00000000E-01  1.87311370E+01  2.82539436E+00  6.40121692E-01  1.61277759E-01
  5.48467166E+03  8.25234946E+02  1.88046958E+02  5.29645000E+01  1.68975704E+01
  5.79963534E+00  1.55396162E+01  3.59993359E+00  1.01376175E+00  2.70005823E-01
  8.00000000E-01  1.87311370E+01  2.82539436E+00  6.40121692E-01  1.61277759E-01
Contraction coefficients                   R   N=          30
  1.83473713E-03  1.40373228E-02  6.88426223E-02  2.32184443E-01  4.67941348E-01
  3.62311985E-01 -1.19332420E-01 -1.60854152E-01  1.14345644E+00  1.00000000E+00
  1.00000000E+00  3.34946043E-02  2.34726953E-01  8.13757326E-01  1.00000000E+00
  1.83107443E-03  1.39501722E-02  6.84450781E-02  2.32714336E-01  4.70192898E-01
  3.58520853E-01 -1.10777550E-01 -1.48026263E-01  1.13076702E+00  1.00000000E+00
  1.00000000E+00  3.34946043E-02  2.34726953E-01  8.13757326E-01  1.00000000E+00
P(S=P) Contraction coefficients            R   N=          30
  0.00000000E+00  0.00000000E+00  0.00000000E+00  0.00000000E+00  0.00000000E+00
  0.00000000E+00  6.89990666E-02  3.16423961E-01  7.44308291E-01  1.00000000E+00
  0.00000000E+00  0.00000000E+00  0.00000000E+00  0.00000000E+00  0.00000000E+00
  0.00000000E+00  0.00000000E+00  0.00000000E+00  0.00000000E+00  0.00000000E+00
  0.00000000E+00  7.08742682E-02  3.39752839E-01  7.27158577E-01  1.00000000E+00
  0.00000000E+00  0.00000000E+00  0.00000000E+00  0.00000000E+00  0.00000000E+00
Coordinates of each shell                  R   N=          36
  0.00000000E+00  8.54778996E-50 -9.99408722E-01  0.00000000E+00  8.54778996E-50
 -9.99408722E-01  0.00000000E+00  8.54778996E-50 -9.99408722E-01  0.00000000E+00
  8.54778996E-50 -9.99408722E-01  0.00000000E+00  1.77209502E+00 -2.12362788E+00
  0.00000000E+00  1.77209502E+00 -2.12362788E+00  0.00000000E+00 -1.09516086E-49
  1.28046351E+00  0.00000000E+00 -1.09516086E-49  1.28046351E+00  0.00000000E+00
 -1.09516086E-49  1.28046351E+00  0.00000000E+00 -1.09516086E-49  1.28046351E+00
 -2.17019049E-16 -1.77209502E+00 -2.12362788E+00 -2.17019049E-16 -1.77209502E+00
 -2.12362788E+00
Num ILSW                                   I              100
ILSW                                       I   N=         100
           0           1           0           0           2           0
           0           0           0           0         402          -1
           5           0           0           0           0           0
           0           0           0           0           0           0
           1           0           0           0           0           0
           0           0      100000           0          -1           0
           0           0           0           0           0           0
           0           0           0           1           0           0
           0 -2000000000           1           0           0           0
           0           0           4          52           0           0
           0           0           5           0           0           0
           0           0           0           4           0           1
           0           0           0           0           0           0
           0           0           0           0           0           0
           0           0           0           0           0           0
           0           0           0           0           0           0
           0           0           0           0
Num RLSW                                   I               52
RLSW                                       R   N=          52
  8.00000000E-01  7.20000000E-01  1.00000000E+00  8.10000000E-01  2.00000000E-01
  0.00000000E+00  0.00000000E+00  1.00000000E+00  0.00000000E+00  0.00000000E+00
  0.00000000E+00  0.00000000E+00  1.00000000E+00  0.00000000E+00  0.00000000E+00
  0.00000000E+00  0.00000000E+00  1.00000000E+00  0.00000000E+00  0.00000000E+00
  0.00000000E+00  0.00000000E+00  1.00000000E+00  0.00000000E+00  0.00000000E+00
  0.00000000E+00  0.00000000E+00  1.00000000E+00  0.00000000E+00  0.00000000E+00
  0.00000000E+00  0.00000000E+00  1.00000000E+00  0.00000000E+00  0.00000000E+00
  0.00000000E+00  0.00000000E+00  0.00000000E+00  1.00000000E+00  1.00000000E+00
  0.00000000E+00  1.00000000E+00  0.00000000E+00  0.00000000E+00  0.00000000E+00
  0.00000000E+00  0.00000000E+00  0.00000000E+00  0.00000000E+00  0.00000000E+00
  0.00000000E+00  0.00000000E+00
MxBond                                     I                3
NBond                                      I   N=           4
           3           1           1           1
IBond                                      I   N=          12
           2           3           4           1           0           0
           1           0           0           1           0           0
RBond                                      R   N=          12
  1.00000000E+00  2.00000000E+00  1.00000000E+00  1.00000000E+00  0.00000000E+00
  0.00000000E+00  2.00000000E+00  0.00000000E+00  0.00000000E+00  1.00000000E+00
  0.00000000E+00  0.00000000E+00
Virial Ratio                               R      2.008952010899194E+00
SCF Energy                                 R     -1.145004727349417E+02
Total Energy                               R     -1.145004727349417E+02
RMS Density                                R      6.776683355966797E-09
Job Status                                 I                1
Nuclear derivative order                   I                0
External E-field                           R   N=          35
  0.00000000E+00  0.00000000E+00  0.00000000E+00  0.00000000E+00  0.00000000E+00
  0.00000000E+00  0.00000000E+00  0.00000000E+00  0.00000000E+00  0.00000000E+00
  0.00000000E+00  0.00000000E+00  0.00000000E+00  0.00000000E+00  0.00000000E+00
  0.00000000E+00  0.00000000E+00  0.00000000E+00  0.00000000E+00  0.00000000E+00
  0.00000000E+00  0.00000000E+00  0.00000000E+00  0.00000000E+00  0.00000000E+00
  0.00000000E+00  0.00000000E+00  0.00000000E+00  0.00000000E+00  0.00000000E+00
  0.00000000E+00  0.00000000E+00  0.00000000E+00  0.00000000E+00  0.00000000E+00
IOpCl                                      I                0
IROHF                                      I                0
Alpha Orbital Energies                     R   N=          34
 -1.91697822E+01 -1.02890992E+01 -1.06088620E+00 -6.37539441E-01 -4.95286235E-01
 -4.49580632E-01 -3.99221212E-01 -2.68501712E-01 -4.21079315E-02  1.01228758E-01
  1.82016836E-01  2.18745242E-01  5.06571797E-01  6.23657176E-01  6.26718713E-01
  6.94065378E-01  8.13780237E-01  8.37093663E-01  8.90499657E-01  9.60084543E-01
  1.05913083E+00  1.37729978E+00  1.50575623E+00  1.51007191E+00  1.68162767E+00
  1.84986342E+00  1.93140802E+00  2.12612079E+00  2.27908816E+00  2.54108040E+00
  2.65700237E+00  2.91080616E+00  3.68305279E+00  4.05549723E+00
Alpha MO coefficients                      R   N=        1156
  3.10671405E-05  5.58821343E-04  0.00000000E+00  0.00000000E+00 -7.18274667E-05
 -2.59304226E-03  0.00000000E+00  0.00000000E+00 -1.96777974E-03  2.78991951E-06
 -2.13896408E-05 -8.52868351E-04  0.00000000E+00  0.00000000E+00  0.00000000E+00
  6.00083489E-05 -1.84731216E-04  9.92820933E-01  2.59535933E-02  0.00000000E+00
  0.00000000E+00 -1.22756253E-03  1.22097564E-02  0.00000000E+00  0.00000000E+00
 -1.18239213E-03 -7.95694390E-03 -7.91585670E-03 -7.41413199E-03  0.00000000E+00
  0.00000000E+00  0.00000000E+00  6.00083489E-05 -1.84731216E-04  9.92747360E-01
  4.86637707E-02  0.00000000E+00  0.00000000E+00  9.64614802E-04 -7.73407332E-03
  0.00000000E+00  0.00000000E+00  1.73037968E-03 -9.91836354E-03 -9.64850763E-03
 -8.60981015E-03  0.00000000E+00  0.00000000E+00  0.00000000E+00 -3.86471486E-04
  2.14656877E-03 -2.19569479E-04  1.46403252E-04  0.00000000E+00  0.00000000E+00
  4.19177614E-05 -1.41572105E-03  0.00000000E+00  0.00000000E+00  1.62833380E-03
  2.09294310E-04  8.07764530E-05 -4.24453067E-04  0.00000000E+00  0.00000000E+00
  0.00000000E+00 -3.86471486E-04  2.14656877E-03 -1.16575710E-01  2.26113204E-01
  0.00000000E+00  0.00000000E+00  1.88691862E-01  9.26299868E-02  0.00000000E+00
  0.00000000E+00 -1.43686950E-02 -1.97791691E-02 -1.71704051E-02  2.62589522E-02
  0.00000000E+00  0.00000000E+00  0.00000000E+00  2.74682552E-02 -8.44958596E-03
 -1.96290174E-01  4.35618157E-01  0.00000000E+00  0.00000000E+00 -1.66056171E-01
  3.70165375E-01  0.00000000E+00  0.00000000E+00 -4.59719694E-02 -3.12390193E-03
 -8.67049955E-03  1.15707530E-02  0.00000000E+00  0.00000000E+00  0.00000000E+00
  2.74682552E-02 -8.44958596E-03 -1.63874616E-01  3.43012308E-01  0.00000000E+00
  0.00000000E+00 -2.22535431E-01  3.27540318E-01  0.00000000E+00  0.00000000E+00
 -8.77915505E-02 -1.25342744E-02  1.72100279E-02 -1.36940208E-02  0.00000000E+00
  0.00000000E+00  0.00000000E+00  1.80067360E-01  6.78712476E-02  8.71607461E-02
 -1.98932298E-01  0.00000000E+00  0.00000000E+00 -1.01306924E-01 -2.50613997E-01
  0.00000000E+00  0.00000000E+00 -5.52823766E-02 -1.08002829E-03  9.98665365E-04
  1.35884202E-02  0.00000000E+00  0.00000000E+00  0.00000000E+00  1.80067360E-01
  6.78712476E-02  0.00000000E+00  0.00000000E+00  0.00000000E+00  4.44971874E-01
  0.00000000E+00  0.00000000E+00  0.00000000E+00  1.61700346E-01  0.00000000E+00
  0.00000000E+00  0.00000000E+00  0.00000000E+00  0.00000000E+00  0.00000000E+00
 -8.26283903E-03  1.94704369E-01  1.35247777E-01  0.00000000E+00  0.00000000E+00
  0.00000000E+00  2.86729137E-01  0.00000000E+00  0.00000000E+00  0.00000000E+00
  1.50780543E-01  0.00000000E+00  0.00000000E+00  0.00000000E+00  0.00000000E+00
  0.00000000E+00  0.00000000E+00 -2.28066864E-02 -1.94704369E-01 -1.35247777E-01
  2.96963681E-02 -8.70731647E-02  0.00000000E+00  0.00000000E+00 -3.61563605E-01
 -2.57028317E-02  0.00000000E+00  0.00000000E+00 -8.29500169E-02  6.54977819E-03
  1.91588909E-02 -5.59828038E-03  0.00000000E+00  0.00000000E+00  0.00000000E+00
  8.06625873E-02  8.03792460E-02 -8.67041075E-02  1.71253428E-01  0.00000000E+00
  0.00000000E+00  5.22943204E-01  4.11499416E-01  0.00000000E+00  0.00000000E+00
  2.58808235E-01 -1.47164557E-03 -3.68177031E-03 -3.80073385E-02  0.00000000E+00
  0.00000000E+00  0.00000000E+00  8.06625873E-02  8.03792460E-02  0.00000000E+00
  0.00000000E+00  3.59873973E-01  0.00000000E+00  0.00000000E+00  0.00000000E+00
  2.08630177E-01  0.00000000E+00  0.00000000E+00  0.00000000E+00  0.00000000E+00
  0.00000000E+00  0.00000000E+00  2.77925267E-02  0.00000000E+00  0.00000000E+00
  0.00000000E+00  0.00000000E+00  0.00000000E+00  5.09250526E-01  0.00000000E+00
  0.00000000E+00  0.00000000E+00  3.13763388E-01  0.00000000E+00  0.00000000E+00
  0.00000000E+00  0.00000000E+00  0.00000000E+00  0.00000000E+00 -3.33839825E-02
  0.00000000E+00  0.00000000E+00  0.00000000E+00  0.00000000E+00  0.00000000E+00
  0.00000000E+00 -1.49795366E-01  0.00000000E+00  0.00000000E+00  0.00000000E+00
  3.20467605E-02  0.00000000E+00  0.00000000E+00  0.00000000E+00  0.00000000E+00
  0.00000000E+00  0.00000000E+00  5.35145307E-02 -1.83096722E-01 -2.84270215E-01
  0.00000000E+00  0.00000000E+00  0.00000000E+00  5.84607629E-01  0.00000000E+00
  0.00000000E+00  0.00000000E+00  4.18052323E-01  0.00000000E+00  0.00000000E+00
  0.00000000E+00  0.00000000E+00  0.00000000E+00  0.00000000E+00 -1.83753193E-02
  1.83096722E-01  2.84270215E-01  0.00000000E+00  0.00000000E+00  4.96699023E-01
  0.00000000E+00  0.00000000E+00  0.00000000E+00  5.83669200E-01  0.00000000E+00
  0.00000000E+00  0.00000000E+00  0.00000000E+00  0.00000000E+00  0.00000000E+00
 -3.19699232E-02  0.00000000E+00  0.00000000E+00  0.00000000E+00  0.00000000E+00
  0.00000000E+00 -4.41818989E-01  0.00000000E+00  0.00000000E+00  0.00000000E+00
 -4.64657584E-01  0.00000000E+00  0.00000000E+00  0.00000000E+00  0.00000000E+00
  0.00000000E+00  0.00000000E+00  7.36225445E-04  0.00000000E+00  0.00000000E+00
  0.00000000E+00 -1.32157433E-01  2.22528592E-01  0.00000000E+00  0.00000000E+00
 -2.48042140E-01  1.84937113E+00  0.00000000E+00  0.00000000E+00 -6.20192853E-01
  3.95947916E-04 -1.43862102E-02 -1.07687718E-02  0.00000000E+00  0.00000000E+00
  0.00000000E+00 -9.47565201E-02 -1.35052443E+00  6.14325401E-03 -1.95860369E-02
  0.00000000E+00  0.00000000E+00  8.24176369E-02  1.92641159E-03  0.00000000E+00
  0.00000000E+00  8.62939770E-02  5.00871038E-03 -7.51801416E-03  2.42338998E-03
  0.00000000E+00  0.00000000E+00  0.00000000E+00 -9.47565201E-02 -1.35052443E+00
  0.00000000E+00  0.00000000E+00  0.00000000E+00 -5.42358742E-01  0.00000000E+00
  0.00000000E+00  0.00000000E+00 -1.33660515E+00  0.00000000E+00  0.00000000E+00
  0.00000000E+00  0.00000000E+00  0.00000000E+00  0.00000000E+00  4.28054963E-03
  1.88167211E-02  1.55924451E+00  0.00000000E+00  0.00000000E+00  0.00000000E+00
  1.79662381E-01  0.00000000E+00  0.00000000E+00  0.00000000E+00  3.78954786E-01
  0.00000000E+00  0.00000000E+00  0.00000000E+00  0.00000000E+00  0.00000000E+00
  0.00000000E+00  1.03530234E-02 -1.88167211E-02 -1.55924451E+00  4.83015361E-02
 -7.55757468E-03  0.00000000E+00  0.00000000E+00 -1.24828818E-01 -1.59296727E+00
  0.00000000E+00  0.00000000E+00 -1.99377509E+00 -1.05517293E-02 -2.17569736E-02
  1.67898177E-02  0.00000000E+00  0.00000000E+00  0.00000000E+00  1.28705219E-02
 -2.13384057E-01 -1.12830938E-01  8.71177673E-02  0.00000000E+00  0.00000000E+00
 -1.90348731E-01  2.20078685E+00  0.00000000E+00  0.00000000E+00 -8.98527125E-01
 -7.60054649E-02 -7.85077960E-02 -4.83208675E-03  0.00000000E+00  0.00000000E+00
  0.00000000E+00  1.28705219E-02 -2.13384057E-01  0.00000000E+00  0.00000000E+00
 -1.02712974E+00  0.00000000E+00  0.00000000E+00  0.00000000E+00  1.16769806E+00
  0.00000000E+00  0.00000000E+00  0.00000000E+00  0.00000000E+00  0.00000000E+00
  0.00000000E+00 -1.89732974E-02  0.00000000E+00  0.00000000E+00  0.00000000E+00
  0.00000000E+00  0.00000000E+00 -3.89272712E-02  0.00000000E+00  0.00000000E+00
  0.00000000E+00 -1.22116337E-01  0.00000000E+00  0.00000000E+00  0.00000000E+00
  0.00000000E+00  0.00000000E+00  0.00000000E+00  7.31900848E-02  0.00000000E+00
  0.00000000E+00  0.00000000E+00 -8.02105257E-02 -4.33564548E-01  0.00000000E+00
  0.00000000E+00  6.33273644E-01  1.51286807E+00  0.00000000E+00  0.00000000E+00
 -1.07829163E+00  9.52194014E-02 -1.59866815E-01 -1.27435811E-01  0.00000000E+00
  0.00000000E+00  0.00000000E+00 -5.53370427E-01 -2.53937107E-01  2.82228621E-02
 -2.97471685E-01  0.00000000E+00  0.00000000E+00  1.74666938E-01  4.06391367E-01
  0.00000000E+00  0.00000000E+00  2.08467327E-01 -6.03940493E-02 -9.99601294E-02
  1.00653214E-02  0.00000000E+00  0.00000000E+00  0.00000000E+00 -5.53370427E-01
 -2.53937107E-01  0.00000000E+00  0.00000000E+00  0.00000000E+00 -7.52060178E-01
  0.00000000E+00  0.00000000E+00  0.00000000E+00  2.27445746E+00  0.00000000E+00
  0.00000000E+00  0.00000000E+00  0.00000000E+00  0.00000000E+00  0.00000000E+00
  5.75056732E-02 -3.13931654E-01 -9.32945262E-01  0.00000000E+00  0.00000000E+00
  0.00000000E+00 -3.70121865E-01  0.00000000E+00  0.00000000E+00  0.00000000E+00
 -2.05114687E-01  0.00000000E+00  0.00000000E+00  0.00000000E+00  0.00000000E+00
  0.00000000E+00  0.00000000E+00  3.02219502E-02  3.13931654E-01  9.32945262E-01
  2.74080900E-02 -8.95517131E-01  0.00000000E+00  0.00000000E+00 -7.84819822E-01
  9.71339973E-01  0.00000000E+00  0.00000000E+00  3.92841930E-01 -3.33653368E-02
 -1.93596268E-01  1.23576560E-01  0.00000000E+00  0.00000000E+00  0.00000000E+00
 -3.32649043E-01  6.24714187E-02 -4.15472203E-02  3.64793017E-02  0.00000000E+00
  0.00000000E+00 -4.02735170E-01 -2.45967716E-02  0.00000000E+00  0.00000000E+00
 -1.89136272E-01  4.95206719E-02  2.33654022E-02 -2.17887079E-01  0.00000000E+00
  0.00000000E+00  0.00000000E+00 -3.32649043E-01  6.24714187E-02  0.00000000E+00
  0.00000000E+00  0.00000000E+00  7.21233486E-01  0.00000000E+00  0.00000000E+00
  0.00000000E+00 -1.15989524E+00  0.00000000E+00  0.00000000E+00  0.00000000E+00
  0.00000000E+00  0.00000000E+00  0.00000000E+00  1.90137026E-01 -7.41997851E-01
  1.37029275E+00  0.00000000E+00  0.00000000E+00  0.00000000E+00 -1.90513350E-01
  0.00000000E+00  0.00000000E+00  0.00000000E+00  1.65556541E-01  0.00000000E+00
  0.00000000E+00  0.00000000E+00  0.00000000E+00  0.00000000E+00  0.00000000E+00
 -1.15885477E-01  7.41997851E-01 -1.37029275E+00  6.24897293E-02 -3.24427355E-01
  0.00000000E+00  0.00000000E+00  4.24781341E-01  1.52254578E+00  0.00000000E+00
  0.00000000E+00 -3.27250864E-01 -1.24686436E-01 -2.27799726E-02  2.11291419E-01
  0.00000000E+00  0.00000000E+00  0.00000000E+00  3.16728871E-01 -6.99871594E-01
  3.20242829E-03 -4.57789923E-01  0.00000000E+00  0.00000000E+00 -6.49809048E-01
  4.17529692E-01  0.00000000E+00  0.00000000E+00  1.17305905E+00 -1.53405538E-01
 -1.60532123E-01 -2.54735647E-01  0.00000000E+00  0.00000000E+00  0.00000000E+00
  3.16728871E-01 -6.99871594E-01  3.65787798E-03 -1.46671302E+00  0.00000000E+00
  0.00000000E+00  3.32726611E-01  2.90012368E+00  0.00000000E+00  0.00000000E+00
 -5.69675122E-01 -8.60525137E-02  3.22227090E-02 -1.80176918E-01  0.00000000E+00
  0.00000000E+00  0.00000000E+00  4.55139662E-01 -1.26031666E+00  4.39129870E-03
  3.37201773E-01  0.00000000E+00  0.00000000E+00  2.50986288E-01 -8.10824931E-01
  0.00000000E+00  0.00000000E+00 -3.67139589E-01  1.56705706E-01  1.20640664E-01
  1.09847424E-01  0.00000000E+00  0.00000000E+00  0.00000000E+00  4.55139662E-01
 -1.26031666E+00  0.00000000E+00  0.00000000E+00  6.44316084E-02  0.00000000E+00
  0.00000000E+00  0.00000000E+00 -4.82692500E-01  0.00000000E+00  0.00000000E+00
  0.00000000E+00  0.00000000E+00  0.00000000E+00  0.00000000E+00 -2.89915426E-02
  0.00000000E+00  0.00000000E+00  0.00000000E+00  0.00000000E+00  0.00000000E+00
 -9.48675398E-01  0.00000000E+00  0.00000000E+00  0.00000000E+00  1.25503161E+00
  0.00000000E+00  0.00000000E+00  0.00000000E+00  0.00000000E+00  0.00000000E+00
  0.00000000E+00  3.16188844E-02  0.00000000E+00  0.00000000E+00  0.00000000E+00
  0.00000000E+00  0.00000000E+00  0.00000000E+00 -2.70266127E-01  0.00000000E+00
  0.00000000E+00  0.00000000E+00  1.64058096E+00  0.00000000E+00  0.00000000E+00
  0.00000000E+00  0.00000000E+00  0.00000000E+00  0.00000000E+00  1.74142983E-01
 -1.65472395E-01 -6.66206738E-01  0.00000000E+00  0.00000000E+00  0.00000000E+00
  8.37880665E-01  0.00000000E+00  0.00000000E+00  0.00000000E+00 -1.51613485E+00
  0.00000000E+00  0.00000000E+00  0.00000000E+00  0.00000000E+00  0.00000000E+00
  0.00000000E+00 -1.12318374E-01  1.65472395E-01  6.66206738E-01 -2.89539847E-02
 -3.93566486E-02  0.00000000E+00  0.00000000E+00 -1.67194507E-01 -2.72528698E+00
  0.00000000E+00  0.00000000E+00 -1.73702026E+00 -3.68846532E-02  2.31422137E-01
 -1.91221388E-01  0.00000000E+00  0.00000000E+00  0.00000000E+00  8.89781204E-02
 -4.89457156E-02 -9.62464655E-02 -1.71704247E+00  0.00000000E+00  0.00000000E+00
  3.06182337E-01  5.19660296E+00  0.00000000E+00  0.00000000E+00 -1.81337190E+00
 -4.02034921E-01 -3.15666456E-01 -5.90140293E-01  0.00000000E+00  0.00000000E+00
  0.00000000E+00  8.89781204E-02 -4.89457156E-02  0.00000000E+00  0.00000000E+00
  0.00000000E+00  0.00000000E+00  0.00000000E+00  0.00000000E+00  0.00000000E+00
  0.00000000E+00  0.00000000E+00  0.00000000E+00  0.00000000E+00  0.00000000E+00
  8.07185804E-01  0.00000000E+00  0.00000000E+00  0.00000000E+00  0.00000000E+00
  0.00000000E+00  0.00000000E+00  0.00000000E+00  0.00000000E+00  0.00000000E+00
  0.00000000E+00  0.00000000E+00  0.00000000E+00  0.00000000E+00  0.00000000E+00
  0.00000000E+00  0.00000000E+00  4.97933901E-01  0.00000000E+00  0.00000000E+00
  0.00000000E+00  0.00000000E+00  0.00000000E+00  0.00000000E+00 -2.13538952E-01
  0.00000000E+00  0.00000000E+00  0.00000000E+00  1.38541097E-01  0.00000000E+00
  0.00000000E+00  0.00000000E+00  0.00000000E+00  0.00000000E+00  0.00000000E+00
  6.70886635E-01  0.00000000E+00  0.00000000E+00  0.00000000E+00  0.00000000E+00
  0.00000000E+00 -1.33847435E-01  0.00000000E+00  0.00000000E+00  0.00000000E+00
 -1.22866821E-01  0.00000000E+00  0.00000000E+00  0.00000000E+00  0.00000000E+00
  0.00000000E+00  0.00000000E+00 -5.42367909E-01  0.00000000E+00  0.00000000E+00
  0.00000000E+00 -2.51053784E-02 -2.03220388E-01  0.00000000E+00  0.00000000E+00
  2.28135696E-02  1.02358758E+00  0.00000000E+00  0.00000000E+00 -3.16317601E-02
 -4.77034443E-01  3.95434992E-01  4.63716863E-02  0.00000000E+00  0.00000000E+00
  0.00000000E+00 -2.85226447E-01 -1.67742471E-01  8.19355125E-03  2.11098174E-01
  0.00000000E+00  0.00000000E+00 -1.89063027E-02 -6.37696749E-01  0.00000000E+00
  0.00000000E+00  2.38764609E-01 -6.87098373E-01  7.16361301E-01  8.05708510E-02
  0.00000000E+00  0.00000000E+00  0.00000000E+00 -2.85226447E-01 -1.67742471E-01
  0.00000000E+00  0.00000000E+00  0.00000000E+00  2.81047697E-01  0.00000000E+00
  0.00000000E+00  0.00000000E+00  8.30464767E-01  0.00000000E+00  0.00000000E+00
  0.00000000E+00  0.00000000E+00  0.00000000E+00  0.00000000E+00 -5.38660005E-01
 -5.79942173E-01 -1.29918320E-01  0.00000000E+00  0.00000000E+00  0.00000000E+00
  2.77087250E-01  0.00000000E+00  0.00000000E+00  0.00000000E+00 -4.80322087E-01
  0.00000000E+00  0.00000000E+00  0.00000000E+00  0.00000000E+00  0.00000000E+00
  0.00000000E+00  6.93685075E-01  5.79942173E-01  1.29918320E-01  0.00000000E+00
  0.00000000E+00  0.00000000E+00  0.00000000E+00  0.00000000E+00  0.00000000E+00
  0.00000000E+00  0.00000000E+00  0.00000000E+00  0.00000000E+00  0.00000000E+00
  0.00000000E+00 -6.03601063E-01  0.00000000E+00  0.00000000E+00  0.00000000E+00
  0.00000000E+00  0.00000000E+00  0.00000000E+00  0.00000000E+00  0.00000000E+00
  0.00000000E+00  0.00000000E+00  0.00000000E+00  0.00000000E+00  0.00000000E+00
  0.00000000E+00  0.00000000E+00  0.00000000E+00  8.76324708E-01  0.00000000E+00
  0.00000000E+00  0.00000000E+00  0.00000000E+00  5.93926474E-02  1.04568126E-01
  0.00000000E+00  0.00000000E+00  1.05191184E-02 -8.55300152E-01  0.00000000E+00
  0.00000000E+00 -5.85803715E-03  9.87489776E-01 -5.46542372E-01 -2.49292639E-01
  0.00000000E+00  0.00000000E+00  0.00000000E+00  4.01720965E-01  5.19296842E-02
 -1.02597147E-03 -1.12807642E-02  0.00000000E+00  0.00000000E+00 -1.48604797E-01
  3.35261323E-01  0.00000000E+00  0.00000000E+00 -6.63173304E-02 -4.20450563E-01
  5.84759134E-01 -8.45745676E-02  0.00000000E+00  0.00000000E+00  0.00000000E+00
  4.01720965E-01  5.19296842E-02 -6.00964836E-02  3.05641843E-02  0.00000000E+00
  0.00000000E+00  1.57052743E-01  9.29552311E-02  0.00000000E+00  0.00000000E+00
  4.14197126E-01 -3.45448179E-01 -8.82375431E-01  9.96717735E-01  0.00000000E+00
  0.00000000E+00  0.00000000E+00  2.44332151E-01 -2.18776823E-02 -5.40409073E-04
 -5.60060556E-01  0.00000000E+00  0.00000000E+00  6.53348452E-01  2.13187174E-01
  0.00000000E+00  0.00000000E+00 -3.25525628E-01 -3.17069007E-01 -6.38872058E-02
 -1.73070067E-02  0.00000000E+00  0.00000000E+00  0.00000000E+00  2.44332151E-01
 -2.18776823E-02  0.00000000E+00  0.00000000E+00  2.71417853E-01  0.00000000E+00
  0.00000000E+00  0.00000000E+00  2.85652109E-01  0.00000000E+00  0.00000000E+00
  0.00000000E+00  0.00000000E+00  0.00000000E+00  0.00000000E+00  9.76914151E-01
  0.00000000E+00  0.00000000E+00  0.00000000E+00  0.00000000E+00  0.00000000E+00
 -2.24087916E-03  0.00000000E+00  0.00000000E+00  0.00000000E+00 -4.86444947E-01
  0.00000000E+00  0.00000000E+00  0.00000000E+00  0.00000000E+00  0.00000000E+00
  0.00000000E+00  1.04210405E+00  0.00000000E+00  0.00000000E+00  0.00000000E+00
  0.00000000E+00  0.00000000E+00  0.00000000E+00  1.28467769E-01  0.00000000E+00
  0.00000000E+00  0.00000000E+00  3.03254280E-01  0.00000000E+00  0.00000000E+00
  0.00000000E+00  0.00000000E+00  0.00000000E+00  0.00000000E+00  1.12612896E+00
  3.62260314E-01 -3.03515345E-01  0.00000000E+00  0.00000000E+00  0.00000000E+00
 -4.69381954E-02  0.00000000E+00  0.00000000E+00  0.00000000E+00 -4.16314373E-01
  0.00000000E+00  0.00000000E+00  0.00000000E+00  0.00000000E+00  0.00000000E+00
  0.00000000E+00  9.57682482E-01 -3.62260314E-01  3.03515345E-01 -5.57721199E-02
 -1.31878081E+00  0.00000000E+00  0.00000000E+00 -1.35777895E+00 -1.38523504E+00
  0.00000000E+00  0.00000000E+00 -7.81589857E-01  3.53301192E-01  2.65451561E-01
 -7.52900332E-01  0.00000000E+00  0.00000000E+00  0.00000000E+00  6.29085079E-02
 -2.37912079E-02 -4.67599551E-02 -6.82579641E-01  0.00000000E+00  0.00000000E+00