 test
GAUSSIAN             34 MOL ORBITALS     64 PRIMITIVES        4 NUCLEI
  C    1    (CENTRE  1)   0.00000000  0.00000000 -0.99940872  CHARGE =  6.0
  H    2    (CENTRE  2)   0.00000000  1.77209502 -2.12362788  CHARGE =  1.0
  O    3    (CENTRE  3)   0.00000000  0.00000000  1.28046351  CHARGE =  8.0
  H    4    (CENTRE  4)   0.00000000 -1.77209502 -2.12362788  CHARGE =  1.0
CENTRE ASSIGNMENTS    1  1  1  1  1  1  1  1  1  1  1  1  1  1  1  1  1  1  1  1
CENTRE ASSIGNMENTS    1  1  1  1  1  1  1  1  2  2  2  2  3  3  3  3  3  3  3  3
CENTRE ASSIGNMENTS    3  3  3  3  3  3  3  3  3  3  3  3  3  3  3  3  3  3  3  3
CENTRE ASSIGNMENTS    4  4  4  4
TYPE ASSIGNMENTS      1  1  1  1  1  1  1  1  1  2  2  2  3  3  3  4  4  4  1  2
TYPE ASSIGNMENTS      3  4  5  6  7  8  9 10  1  1  1  1  1  1  1  1  1  1  1  1
TYPE ASSIGNMENTS      1  2  2  2  3  3  3  4  4  4  1  2  3  4  5  6  7  8  9 10
TYPE ASSIGNMENTS      1  1  1  1
EXPONENTS  0.3047525D+04 0.4573695D+03 0.1039487D+03 0.2921016D+02 0.9286663D+01
EXPONENTS  0.3163927D+01 0.7868272D+01 0.1881289D+01 0.5442493D+00 0.7868272D+01
EXPONENTS  0.1881289D+01 0.5442493D+00 0.7868272D+01 0.1881289D+01 0.5442493D+00
EXPONENTS  0.7868272D+01 0.1881289D+01 0.5442493D+00 0.1687145D+00 0.1687145D+00
EXPONENTS  0.1687145D+00 0.1687145D+00 0.8000000D+00 0.8000000D+00 0.8000000D+00
EXPONENTS  0.8000000D+00 0.8000000D+00 0.8000000D+00 0.1873114D+02 0.2825394D+01
EXPONENTS  0.6401217D+00 0.1612778D+00 0.5484672D+04 0.8252349D+03 0.1880470D+03
EXPONENTS  0.5296450D+02 0.1689757D+02 0.5799635D+01 0.1553962D+02 0.3599934D+01
EXPONENTS  0.1013762D+01 0.1553962D+02 0.3599934D+01 0.1013762D+01 0.1553962D+02
EXPONENTS  0.3599934D+01 0.1013762D+01 0.1553962D+02 0.3599934D+01 0.1013762D+01
EXPONENTS  0.2700058D+00 0.2700058D+00 0.2700058D+00 0.2700058D+00 0.8000000D+00
EXPONENTS  0.8000000D+00 0.8000000D+00 0.8000000D+00 0.8000000D+00 0.8000000D+00
EXPONENTS  0.1873114D+02 0.2825394D+01 0.6401217D+00 0.1612778D+00
MO    1     MO 0.0        OCC NO =    2.0248680  ORB. ENERGY =    0.000000
 -0.26129613D-15 -0.48204033D-15 -0.77816256D-15 -0.10129364D-14 -0.86434050D-15
 -0.29843600D-15  0.24056560D-14  0.11087647D-14 -0.31090918D-14  0.34956736D+00
  0.26802608D+00  0.13376380D+00  0.70644108D-15  0.54165421D-15  0.27032341D-15
  0.34549460D-14  0.26490335D-14  0.13220534D-14 -0.82078589D-15  0.20515074D-01
  0.76513188D-17  0.25949010D-15  0.44771308D-15 -0.16651077D-15 -0.20397944D-15
  0.40400738D-16  0.56614962D-01 -0.31767890D-15 -0.56387085D-15 -0.95643168D-15
 -0.10888637D-14 -0.12792094D-15  0.28989990D-14  0.53357057D-14  0.86341790D-14
  0.11349870D-13  0.97347175D-14  0.33284653D-14  0.37808860D-14  0.16870240D-14
 -0.49818043D-14  0.18194810D+01  0.14018120D+01  0.61547098D+00 -0.75463310D-14
 -0.58140412D-14 -0.25526773D-14 -0.42167555D-14 -0.32487828D-14 -0.14263906D-14
 -0.17356925D-14  0.10105072D+00 -0.46543759D-15 -0.33224112D-15  0.13643305D-15
  0.74667871D-17  0.89233035D-17  0.14775365D-16 -0.59977830D-01  0.16931043D-15
 -0.80973203D-15 -0.13734588D-14 -0.15636343D-14 -0.44483964D-15
MO    2     MO 0.0        OCC NO =    2.0014994  ORB. ENERGY =    0.000000
 -0.13065332D-01 -0.24102987D-01 -0.38909695D-01 -0.50648861D-01 -0.43218765D-01
 -0.14922401D-01 -0.20960614D-01 -0.96607280D-02  0.27089690D-01  0.27040114D-14
  0.20732644D-14  0.10347042D-14  0.52158146D-13  0.39991558D-13  0.19958590D-13
 -0.56498383D+00 -0.43319377D+00 -0.21619405D+00  0.26431157D-01  0.15874613D-15
  0.23592487D-14 -0.14034808D-01  0.70205968D-02  0.33768421D-01 -0.25224244D-01
  0.67636213D-18  0.36167639D-15 -0.15651968D-14  0.34404861D-01  0.58357156D-01
  0.66437560D-01  0.20120221D-01  0.37602174D-01  0.69208074D-01  0.11199173D+00
  0.14721626D+00  0.12626653D+00  0.43172671D-01  0.75676614D-01  0.33766758D-01
 -0.99713688D-01  0.14791549D-13  0.11396091D-13  0.50034978D-14  0.76340911D-13
  0.58816556D-13  0.25823636D-13  0.12855073D+01  0.99041407D+00  0.43484512D+00
  0.10293565D-01  0.81232775D-15  0.35104767D-14  0.53173463D-01  0.81402842D-03
  0.44661147D-03 -0.28034645D-01  0.50082422D-19 -0.50374339D-15 -0.44243602D-14
  0.34404861D-01  0.58357156D-01  0.66437560D-01  0.20120221D-01
MO    3     MO 0.0        OCC NO =    2.0009335  ORB. ENERGY =    0.000000
 -0.11017053D+00 -0.20324312D+00 -0.32809742D+00 -0.42708535D+00 -0.36443270D+00
 -0.12582985D+00 -0.15727644D+00 -0.72488565D-01  0.20326550D+00  0.47036289D-14
  0.36064443D-14  0.17998685D-14  0.12102210D-12  0.92792073D-13  0.46309748D-13
  0.64320498D-01  0.49316879D-01  0.24612579D-01  0.55193557D-01  0.23387677D-15
  0.54957327D-14 -0.69367654D-02 -0.27487583D-01  0.25734941D-02  0.94601516D-02
  0.52777190D-18  0.61219869D-15 -0.22413807D-14  0.28541368D-01  0.48411562D-01
  0.55114852D-01  0.59776600D-02 -0.10873643D-01 -0.20013308D-01 -0.32385311D-01
 -0.42571398D-01 -0.36513240D-01 -0.12484497D-01 -0.20476231D-01 -0.91364543D-02
  0.26980072D-01  0.23267215D-13  0.17926135D-13  0.78705388D-14  0.18892770D-12
  0.14555861D-12  0.63908070D-13 -0.10948500D+01 -0.84352286D+00 -0.37035197D+00
 -0.31237246D-01  0.13520432D-14  0.87948407D-14 -0.43449919D-01 -0.37703166D-02
 -0.30484221D-02  0.32985839D-01 -0.33556929D-19 -0.75007502D-15 -0.99246160D-14
  0.28541368D-01  0.48411562D-01  0.55114852D-01  0.59776600D-02
MO    4     MO 0.0        OCC NO =    2.0007109  ORB. ENERGY =    0.000000
  0.35267511D-13  0.65061672D-13  0.10502971D-12  0.13671748D-12  0.11666127D-12
  0.40280333D-13  0.35468371D-13  0.16347340D-13 -0.45839647D-13  0.46546513D-16
  0.35688914D-16  0.17811269D-16  0.55542256D+00  0.42586279D+00  0.21253538D+00
  0.40858637D-13  0.31327811D-13  0.15634773D-13 -0.15076809D-13  0.71509676D-18
  0.24954313D-01  0.26241571D-14  0.45921766D-14 -0.44878651D-14  0.16215813D-14
  0.28463534D-20  0.10086930D-16 -0.12330490D-01  0.44543033D-01  0.75553414D-01
  0.86014892D-01  0.27716944D-01 -0.26424459D-13 -0.48635110D-13 -0.78700789D-13
 -0.10345439D-12 -0.88732229D-13 -0.30339056D-13 -0.22146599D-13 -0.98817692D-14
  0.29180997D-13  0.34296271D-15  0.26423428D-15  0.11601308D-15  0.83842270D+00
  0.64595949D+00  0.28361101D+00  0.15640788D-12  0.12050384D-12  0.52907676D-13
  0.15459274D-13  0.21637102D-16  0.38658885D-01  0.67474021D-14  0.40487813D-15
  0.89674823D-15 -0.54834228D-14 -0.10224904D-19 -0.16830310D-16 -0.46283772D-01
 -0.44543033D-01 -0.75553414D-01 -0.86014892D-01 -0.27716944D-01
MO    5     MO 0.0        OCC NO =    2.0001162  ORB. ENERGY =    0.000000
 -0.10106593D-01 -0.18644691D-01 -0.30098312D-01 -0.39179059D-01 -0.33431562D-01
 -0.11543115D-01 -0.79652865D-02 -0.36711933D-02  0.10294409D-01  0.43736518D-14
  0.33534388D-14  0.16736010D-14 -0.36268073D-13 -0.27808058D-13 -0.13878170D-13
  0.26327719D-01  0.20186425D-01  0.10074441D-01 -0.87659219D-02  0.28934654D-15
 -0.14896874D-14 -0.41716145D-02 -0.85022604D-02 -0.82245188D-02  0.22839096D-01
 -0.39234258D-18  0.50218973D-15  0.12389110D-14  0.18087972D-02  0.30680624D-02
  0.34928806D-02  0.28422661D-02 -0.18905802D+00 -0.34796769D+00 -0.56307740D+00
 -0.74018101D+00 -0.63484895D+00 -0.21706564D+00 -0.31004536D+00 -0.13834164D+00
  0.40852470D+00  0.23738113D-13  0.18288936D-13  0.80298280D-14 -0.44023971D-13
 -0.33918097D-13 -0.14891871D-13  0.59779294D+00  0.46056723D+00  0.20221382D+00
  0.15466959D+00  0.13850525D-14 -0.19174866D-14  0.34231293D-01 -0.92423406D-02
  0.94981156D-04 -0.17424686D-01 -0.29382447D-18 -0.11590949D-14  0.29844121D-14
  0.18087972D-02  0.30680624D-02  0.34928806D-02  0.28422661D-02
MO    6     MO 0.0        OCC NO =    2.0000001  ORB. ENERGY =    0.000000
  0.53136870D+00  0.98027149D+00  0.15824621D+01  0.20598955D+01  0.17577126D+01
  0.60689591D+00 -0.21144144D-01 -0.97453168D-02  0.27326886D-01  0.15381533D-14
  0.11793584D-14  0.58858248D-15 -0.10879984D-13 -0.83420815D-14 -0.41632833D-14
  0.66426625D-02  0.50931723D-02  0.25418499D-02 -0.10178403D-02  0.65316356D-16
 -0.47061883D-15  0.30755276D-03 -0.11645245D-01 -0.11239884D-01 -0.95004303D-02
  0.83090334D-15  0.34077005D-15  0.30066392D-15 -0.66284258D-04 -0.11243065D-03
 -0.12799832D-03  0.27566715D-03  0.18362513D-01  0.33796826D-01  0.54689645D-01
  0.71891069D-01  0.61660552D-01  0.21082790D-01 -0.41666943D-03 -0.18591709D-03
  0.54901565D-03  0.71988418D-14  0.55463195D-14  0.24351330D-14 -0.16380266D-13
 -0.12620112D-13 -0.55409088D-14 -0.21163127D-01 -0.16305048D-01 -0.71587945D-02
 -0.12279917D-02  0.28354904D-15 -0.75813896D-15 -0.34547651D-03  0.78693620D-04
 -0.46064163D-04 -0.27722630D-03  0.75494077D-15  0.27015860D-15  0.10224596D-14
 -0.66284258D-04 -0.11243065D-03 -0.12799832D-03  0.27566715D-03
MO    7     MO 0.0        OCC NO =    2.0000000  ORB. ENERGY =    0.000000
 -0.11782331D-01 -0.21736100D-01 -0.35088805D-01 -0.45675198D-01 -0.38974729D-01
 -0.13457037D-01  0.32515328D-03  0.14986285D-03 -0.42023107D-03 -0.60426405D-15
 -0.46331135D-15 -0.23122483D-15  0.91725652D-14  0.70329412D-14  0.35099306D-14
 -0.54998968D-03 -0.42169720D-03 -0.21045646D-03 -0.49027027D-03  0.19811330D-16
  0.38509130D-15 -0.31627185D-03  0.27388710D-03  0.24505364D-03 -0.75853764D-03
  0.98608530D-15 -0.19630667D-15 -0.19227123D-15  0.15364386D-04  0.26060906D-04
  0.29669421D-04 -0.32855241D-04  0.82554219D+00  0.15194383D+01  0.24587380D+01
  0.32320800D+01  0.27721362D+01  0.94784045D+00 -0.16036415D-01 -0.71554171D-02
  0.21130042D-01 -0.15594424D-14 -0.12014663D-14 -0.52750842D-15  0.13715288D-13
  0.10566890D-13  0.46394338D-14 -0.20873051D-02 -0.16081561D-02 -0.70606713D-03
  0.33472762D-02 -0.29991270D-16  0.67035770D-15 -0.26755347D-03 -0.88736607D-02
 -0.88904185D-02 -0.83297157D-02  0.89583033D-15 -0.44562229D-15 -0.75669830D-15
  0.15364386D-04  0.26060906D-04  0.29669421D-04 -0.32855241D-04
MO    8     MO 0.0        OCC NO =    0.9982210  ORB. ENERGY =    0.000000
  0.33576888D-15  0.61942802D-15  0.99994889D-15  0.13016363D-14  0.11106886D-14
  0.38349410D-15  0.44363930D-15  0.20447295D-15 -0.57336349D-15 -0.33537362D-13
 -0.25714322D-13 -0.12833249D-13 -0.17735868D+00 -0.13598739D+00 -0.67867237D-01
 -0.91853310D-15 -0.70427292D-15 -0.35148155D-15 -0.14262091D-15 -0.42552680D-14
 -0.14095766D-02  0.30330947D-17  0.16244723D-15  0.90332167D-16 -0.21518198D-15
 -0.22551665D-19  0.25663340D-14  0.87950194D-01 -0.38501887D-01 -0.65306487D-01
 -0.74349127D-01 -0.42487416D-01  0.99408223D-15  0.18296420D-14  0.29607061D-14
  0.38919310D-14  0.33380866D-14  0.11413485D-14  0.18387373D-14  0.82044102D-15
 -0.24227733D-14  0.62854184D-13  0.48425760D-13  0.21261517D-13  0.19070162D+01
  0.14692532D+01  0.64508129D+00  0.21988862D-14  0.16941233D-14  0.74381136D-15
 -0.48379788D-15  0.55824749D-14  0.11659856D+00 -0.12774396D-16 -0.59882023D-16
 -0.20466533D-15 -0.15224482D-15  0.16372745D-21  0.40955108D-15 -0.39543997D-01
  0.38501887D-01  0.65306487D-01  0.74349127D-01  0.42487416D-01
MO    9     MO 0.0        OCC NO =    0.9778711  ORB. ENERGY =    0.000000
  0.41388639D-17  0.76353957D-17  0.12325896D-16  0.16044654D-16  0.13690933D-16
  0.47271500D-17 -0.67503811D-17 -0.31112445D-17  0.87242543D-17 -0.72493459D+00
 -0.55583386D+00 -0.27740005D+00  0.12759018D-13  0.97828055D-14  0.48823056D-14
  0.23216129D-16  0.17800655D-16  0.88837745D-17 -0.85741223D-17 -0.90506258D-01
  0.13124463D-14  0.18168811D-17  0.29873090D-16  0.33079913D-17  0.10703013D-16
  0.62051606D-15  0.49511289D-01 -0.43945651D-14  0.17893747D-14  0.30351181D-14
  0.34553747D-14  0.38488076D-15 -0.20005418D-16 -0.36820649D-16 -0.59582760D-16
 -0.78323206D-16 -0.67177359D-16 -0.22969080D-16 -0.56007648D-16 -0.24990504D-16
  0.73797292D-16  0.11591397D+01  0.89305466D+00  0.39209910D+00 -0.93970962D-13
 -0.72399560D-13 -0.31787307D-13  0.79191453D-16  0.61012746D-16  0.26787882D-16
  0.20374482D-16  0.10855043D+00 -0.62695691D-14  0.52538248D-17 -0.19799483D-16
 -0.16991665D-16 -0.24998368D-16  0.16231624D-15  0.12823150D-01  0.16599458D-14
 -0.17812725D-14 -0.30213753D-14 -0.34397290D-14 -0.37276822D-15
MO   10     MO 0.0        OCC NO =    0.0000899  ORB. ENERGY =    0.000000
 -0.11309324D-13 -0.20863494D-13 -0.33680148D-13 -0.43841545D-13 -0.37410070D-13
 -0.12916798D-13 -0.63964355D-13 -0.29481113D-13  0.82668118D-13 -0.16839730D-11
 -0.12911637D-11 -0.64438117D-12 -0.39180380D-13 -0.30041031D-13 -0.14992580D-13
  0.11938885D-12  0.91539796D-13  0.45684774D-13  0.10100128D-12  0.12229231D-12
 -0.26607499D-14  0.70866410D-13  0.90607051D-13 -0.69537690D-12  0.10557615D-12
  0.41996365D+00  0.45112156D-12 -0.17918866D-12  0.96827360D-14  0.16423753D-13
  0.18697862D-13  0.15643004D-13  0.18034741D-13  0.33193551D-13  0.53713432D-13
  0.70607809D-13  0.60559908D-13  0.20706461D-13 -0.18167963D-13 -0.81065096D-14
  0.23938631D-13 -0.19953639D-11 -0.15373203D-11 -0.67496641D-12  0.18458696D-13
  0.14221430D-13  0.62439739D-14  0.12377405D-12  0.95361229D-13  0.41868716D-13
 -0.18554154D-12  0.17027126D-12  0.11013911D-13  0.66311641D-13  0.29157869D-13
  0.22781908D-12 -0.17841428D-12  0.18311562D+01 -0.24203436D-11 -0.22589221D-12
  0.45730353D-14  0.77567333D-14  0.88307668D-14  0.25576098D-13
MO   11     MO 0.0        OCC NO =    0.0000598  ORB. ENERGY =    0.000000
  0.48734085D-14  0.89904872D-14  0.14513434D-13  0.18892179D-13  0.16120730D-13
  0.55661007D-14  0.21047687D-12  0.97008598D-13 -0.27202224D-12 -0.10248848D-12
 -0.78581664D-13 -0.39217758D-13 -0.11655540D+00 -0.89367286D-01 -0.44600539D-01
 -0.39701601D-13 -0.30440669D-13 -0.15192027D-13  0.43477152D-13  0.14822335D-13
  0.27343522D-01 -0.29759197D-13  0.19673191D-12 -0.96620167D-13  0.82640547D-13
 -0.12821050D-16  0.14648249D-12  0.80584904D-01  0.16428196D+00  0.27865330D+00
  0.31723694D+00 -0.16553435D+00  0.14726261D-14  0.27104182D-14  0.43859683D-14
  0.57654781D-14  0.49450171D-14  0.16907853D-14  0.31295904D-14  0.13964171D-14
 -0.41236385D-14 -0.12956339D-12 -0.99821604D-13 -0.43827061D-13  0.11135424D+01
  0.85792442D+00  0.37667503D+00  0.37004208D-12  0.28509748D-12  0.12517315D-12
  0.11482981D-13  0.93047921D-15 -0.76543945D-01 -0.81856390D-13  0.46703966D-13
  0.50381980D-13  0.46539390D-13  0.21202893D-16  0.35156000D-13  0.83256737D+00
 -0.16428196D+00 -0.27865330D+00 -0.31723694D+00  0.16553435D+00
MO   12     MO 0.0        OCC NO =    0.0000496  ORB. ENERGY =    0.000000
  0.48066863D-13  0.88673976D-13  0.14314729D-12  0.18633524D-12  0.15900020D-12
  0.54898947D-13  0.12185955D-11  0.56164954D-12 -0.15749239D-11  0.10369941D+01
  0.79510127D+00  0.39681126D+00 -0.27346297D-12 -0.20967406D-12 -0.10464205D-12
 -0.21919229D-11 -0.16806274D-11 -0.83875087D-12 -0.62751916D-12 -0.10869916D+00
 -0.41675595D-13 -0.67143018D-13  0.17838015D-11  0.11574597D-11 -0.37258917D-12
 -0.15967416D-11 -0.80751190D+00 -0.41408071D-12 -0.89491218D-13 -0.15179404D-12
 -0.17281215D-12  0.16914438D-12 -0.42520374D-12 -0.78260187D-12 -0.12663975D-11
 -0.16647150D-11 -0.14278164D-11 -0.48819468D-12 -0.85748592D-12 -0.38260855D-12
  0.11298482D-11  0.14815902D+01  0.11414854D+01  0.50117357D+00  0.97891971D-12
  0.75420486D-12  0.33113656D-12  0.29018197D-11  0.22356956D-11  0.98159080D-12
  0.97408058D-12 -0.86413316D-01 -0.34657170D-13 -0.10576733D-11 -0.11908295D-11
 -0.23942758D-11  0.24628869D-12  0.36096721D-11  0.47436020D+00 -0.23228692D-11
 -0.28750005D-12 -0.48765450D-12 -0.55517741D-12  0.32146605D-12
MO   13     MO 0.0        OCC NO =    0.0000188  ORB. ENERGY =    0.000000
  0.24533617D-13  0.45259733D-13  0.73063242D-13  0.95106633D-13  0.81154662D-13
  0.28020755D-13  0.18616267D-12  0.85802203D-13 -0.24059833D-12  0.11228822D-11
  0.86095487D-12  0.42967682D-12 -0.25312646D-12 -0.19408131D-12 -0.96860177D-13
  0.27054717D-12  0.20743841D-12  0.10352631D-12  0.60032878D-13 -0.20785452D-12
 -0.17319592D-13  0.16097686D-12  0.10522058D-11 -0.16740687D-11  0.90293686D-12
  0.18985686D+01 -0.20972064D-11 -0.11556596D-11  0.94943710D-14  0.16104250D-13
  0.18334120D-13  0.11560604D-12 -0.78446887D-13 -0.14438415D-12 -0.23364081D-12
 -0.30712738D-12 -0.26342137D-12 -0.90068240D-13 -0.42569181D-12 -0.18994286D-12
  0.56090380D-12  0.28468610D-11  0.21933530D-11  0.96300009D-12  0.11753866D-12
  0.90557202D-13  0.39759489D-13  0.28085818D-12  0.21638609D-12  0.95005149D-13
 -0.35688030D-12 -0.11593818D-12  0.71345784D-13  0.17640852D-12 -0.83591131D-12
 -0.36973113D-12  0.23369093D-12 -0.65406342D+00 -0.27868954D-11 -0.14571814D-11
 -0.23756286D-13 -0.40295157D-13 -0.45874612D-13  0.17968759D-12
MO   14     MO 0.0        OCC NO =    0.0000020  ORB. ENERGY =    0.000000
 -0.11788627D-11 -0.21747715D-11 -0.35107556D-11 -0.45699606D-11 -0.38995557D-11
 -0.13464229D-11 -0.45689995D-11 -0.21058477D-11  0.59050167D-11 -0.33836854D-11
 -0.25943953D-11 -0.12947851D-11 -0.42103489D+00 -0.32282285D+00 -0.16111123D+00
  0.64123228D-11  0.49165624D-11  0.24537092D-11  0.26519369D-11 -0.75216673D-12
  0.39090759D+00 -0.24733385D-11 -0.69142761D-11 -0.11650127D-10 -0.13963885D-10
 -0.27978294D-15 -0.18962673D-10  0.32593599D+00 -0.48633559D-01 -0.82491720D-01
 -0.93913908D-01 -0.23489568D+00 -0.22919958D-11 -0.42184958D-11 -0.68263225D-11
 -0.89733920D-11 -0.76964262D-11 -0.26315388D-11 -0.49683238D-11 -0.22168564D-11
  0.65464067D-11  0.66055277D-11  0.50892030D-11  0.22344342D-11  0.21782180D+01
  0.16781996D+01  0.73682000D+00 -0.48594139D-12 -0.37439164D-12 -0.16437810D-12
  0.45061943D-11  0.79304448D-12 -0.45349130D+00 -0.11696839D-11 -0.49334491D-11
 -0.10006715D-10 -0.81253108D-11 -0.36381239D-15 -0.35110990D-10  0.55081686D-01
  0.48633559D-01  0.82491720D-01  0.93913908D-01  0.23489568D+00
MO   15     MO 0.0        OCC NO =    0.0000009  ORB. ENERGY =    0.000000
 -0.20199388D-11 -0.37263927D-11 -0.60155533D-11 -0.78304630D-11 -0.66817482D-11
 -0.23070471D-11  0.14650590D-10  0.67524435D-11 -0.18934556D-10  0.19789055D+00
  0.15172992D+00  0.75723864D-01 -0.83097522D-11 -0.63713909D-11 -0.31797706D-11
 -0.33372881D-11 -0.25588208D-11 -0.12770309D-11 -0.22672138D-11 -0.25450994D-01
 -0.11430969D-10 -0.65200109D-11 -0.13708679D-10 -0.22140636D-10  0.77012631D-11
 -0.25983259D-11  0.63293038D+00 -0.56485275D-10  0.16954363D-11  0.28757808D-11
  0.32739748D-11  0.36488968D-11 -0.72797635D-11 -0.13398651D-10 -0.21681546D-10
 -0.28501000D-10 -0.24445142D-10 -0.83582091D-11 -0.23902034D-10 -0.10665041D-10
  0.31494009D-10  0.12168861D+01  0.93754515D+00  0.41163282D+00 -0.99778956D-11
 -0.76874307D-11 -0.33751961D-11  0.17873463D-09  0.13770540D-09  0.60460088D-10
  0.81235128D-11 -0.15969734D+00  0.11240520D-10 -0.29010178D-10  0.19099977D-10
 -0.36458558D-10 -0.14694328D-10 -0.11901139D-12 -0.12692434D+01 -0.14351820D-09
 -0.85019194D-11 -0.14420865D-10 -0.16417645D-10 -0.47462956D-12
MO   16     MO 0.0        OCC NO =    0.0000000  ORB. ENERGY =    0.000000
  0.98633636D-10  0.18195980D-09  0.29373954D-09  0.38236160D-09  0.32626984D-09
  0.11265314D-09  0.15438370D-09  0.71155306D-10 -0.19952691D-09  0.40145062D+00
  0.30780687D+00  0.15361720D+00  0.40840181D-08  0.31313660D-08  0.15627711D-08
 -0.37732560D-08 -0.28930934D-08 -0.14438564D-08 -0.49749684D-09  0.42176906D-01
  0.15326930D-08  0.41774211D-09  0.15936607D-08  0.39618842D-08 -0.19094178D-08
  0.20663735D-11  0.20220379D+01  0.18108272D-07 -0.83183360D-09 -0.14109472D-08
 -0.16063135D-08  0.28839792D-09 -0.17263023D-10 -0.31773177D-10 -0.51414998D-10
 -0.67586454D-10 -0.57968509D-10 -0.19820418D-10  0.15331390D-08  0.68408363D-09
 -0.20201081D-08  0.35644729D+00  0.27462342D+00  0.12057447D+00 -0.28290571D-08
 -0.21796359D-08 -0.95697758D-09 -0.15751573D-07 -0.12135738D-07 -0.53282425D-08
  0.13465968D-08 -0.18207821D+00 -0.17787385D-08  0.13642788D-08 -0.57883739D-08
 -0.19068405D-08  0.42909004D-08  0.40331763D-12  0.18139161D+01  0.36679507D-07
  0.11027200D-08  0.18704218D-08  0.21294091D-08 -0.24046209D-09
MO   17     MO 0.0        OCC NO =    0.0000000  ORB. ENERGY =    0.000000
  0.49193461D-02  0.90752329D-02  0.14650240D-01  0.19070259D-01  0.16272687D-01
  0.56185677D-02  0.51327485D-02  0.23656791D-02 -0.66336111D-02 -0.21007509D-08
 -0.16107226D-08 -0.80386345D-09 -0.33304917D+00 -0.25536098D+00 -0.12744303D+00
  0.18861379D-02  0.14461709D-02  0.72174065D-03 -0.16278845D-01 -0.22212337D-09
  0.21573276D+00  0.96628421D-02  0.20166752D-01  0.47675081D-01  0.59096507D-01
 -0.18639090D-14 -0.10594681D-07 -0.16294436D+01 -0.11699886D+00 -0.19845222D+00
 -0.22593083D+00 -0.78257081D-01  0.14014411D-02  0.25793998D-02  0.41739558D-02
  0.54867817D-02  0.47059808D-02  0.16090547D-02 -0.55177611D-02 -0.24620143D-02
  0.72703611D-02 -0.18345045D-08 -0.14133869D-08 -0.62055296D-09 -0.29182650D-01
 -0.22483658D-01 -0.98715371D-02  0.21471273D-01  0.16542458D-01  0.72630301D-02
 -0.15739924D-01  0.95091482D-09 -0.24583062D-01  0.86421599D-02  0.80582510D-02
  0.33527563D-02 -0.96647340D-02  0.74300329D-14 -0.95559371D-08  0.59448284D+00
  0.10621788D+00  0.18016562D+00  0.20511219D+00  0.10162400D+00
MO   18     MO 0.0        OCC NO =    0.0000000  ORB. ENERGY =    0.000000
  0.36381983D-01  0.67117655D-01  0.10834871D+00  0.14103782D+00  0.12034783D+00
  0.41553213D-01  0.31827532D-02  0.14669280D-02 -0.41134194D-02 -0.55286611D-09
 -0.42390267D-09 -0.21155714D-09 -0.85481889D-01 -0.65542090D-01 -0.32710097D-01
 -0.25928025D+00 -0.19879965D+00 -0.99214958D-01 -0.13790930D+00 -0.59733572D-10
 -0.81941362D-02  0.40356391D-01  0.71554295D+00  0.38884302D+00 -0.47923120D+00
 -0.12596423D-11 -0.27975513D-08 -0.38926329D+00 -0.48372082D-01 -0.82048207D-01
 -0.93408983D-01  0.95561426D-01 -0.54812816D-02 -0.10088484D-01 -0.16325072D-01
 -0.21459764D-01 -0.18405915D-01 -0.62932948D-02 -0.99316831D-01 -0.44314976D-01
  0.13086272D+00 -0.45404780D-09 -0.34981935D-09 -0.15358954D-09  0.41433841D-01
  0.31922541D-01  0.14015715D-01 -0.23104019D+01 -0.17800401D+01 -0.78153348D+00
  0.15869578D-01  0.24828298D-09  0.25268710D-01  0.22272347D+00 -0.49198066D+00
 -0.11223332D+00  0.40347303D+00  0.41100609D-12 -0.25750614D-08 -0.51672925D+00
 -0.62215643D-01 -0.10552951D+00 -0.12014161D+00  0.11625499D+00
MO   19     MO 0.0        OCC NO =    0.0000000  ORB. ENERGY =    0.000000
 -0.26862013D-01 -0.49555168D-01 -0.79997407D-01 -0.10413285D+00 -0.88856753D-01
 -0.30680102D-01 -0.37779065D-01 -0.17412336D-01  0.48826009D-01  0.36521503D-08
  0.28002372D-08  0.13975146D-08 -0.21085505D+00 -0.16167027D+00 -0.80684798D-01
  0.48456887D-01  0.37153667D-01  0.18542284D-01  0.24260177D+00  0.38530210D-09
 -0.13146706D-01  0.16027139D+00 -0.19788992D+00 -0.94659552D+00  0.54687214D+00
 -0.24533883D-11  0.18409252D-07 -0.96340017D+00  0.97133855D-01  0.16475740D+00
  0.18757048D+00 -0.76663476D-01 -0.42001554D-01 -0.77305280D-01 -0.12509454D+00
 -0.16444027D+00 -0.14103946D+00 -0.48223788D-01 -0.10950474D+00 -0.48860801D-01
  0.14428660D+00  0.32085922D-08  0.24720473D-08  0.10853619D-08  0.96765274D-01
  0.74552427D-01  0.32732531D-01  0.56118569D+00  0.43236332D+00  0.18983078D+00
 -0.25114435D+00 -0.16542992D-08  0.58819367D-01  0.11024041D+00 -0.45114907D+00
 -0.21789736D+00 -0.14320814D+00  0.29919467D-12  0.16574526D-07 -0.12002009D+01
  0.70893384D-01  0.12024860D+00  0.13689878D+00 -0.22787738D-01
MO   20     MO 0.0        OCC NO =    0.0000000  ORB. ENERGY =    0.000000
 -0.93680319D-01 -0.17282190D+00 -0.27898813D+00 -0.36315964D+00 -0.30988478D+00
 -0.10699577D+00 -0.62491413D+00 -0.28802235D+00  0.80764474D+00  0.17017686D-08
  0.13048082D-08  0.65119076D-09 -0.60286361D-01 -0.46223758D-01 -0.23068895D-01
 -0.50997170D+00 -0.39101395D+00 -0.19514337D+00 -0.12589753D+00  0.18007360D-09
 -0.82562016D-02  0.17221550D+00 -0.10325690D+01 -0.45029394D+00 -0.71521953D+00
  0.39650999D-12  0.85849624D-08 -0.27340060D+00 -0.88984345D-01 -0.15093429D+00
 -0.17183336D+00  0.16341276D+00 -0.33854307D-01 -0.62309997D-01 -0.10082934D+00
 -0.13254299D+00 -0.11368135D+00 -0.38869584D-01 -0.40704251D-01 -0.18162158D-01
  0.53633095D-01  0.14856060D-08  0.11445793D-08  0.50253198D-09  0.31128011D-01
  0.23982455D-01  0.10529589D-01  0.15961669D+00  0.12297606D+00  0.53993113D-01
 -0.33899139D-01 -0.77046540D-09  0.19051506D-01 -0.39828292D-01 -0.46663916D-01
 -0.79483121D-01 -0.51575699D+00 -0.29728000D-12  0.77445902D-08 -0.39050934D+00
 -0.10151985D+00 -0.17219688D+00 -0.19604006D+00  0.17701412D+00
MO   21     MO 0.0        OCC NO =    0.0000000  ORB. ENERGY =    0.000000
 -0.52230473D-01 -0.96355023D-01 -0.15554688D+00 -0.20247583D+00 -0.17277299D+00
 -0.59654361D-01 -0.60329387D+00 -0.27805759D+00  0.77970251D+00 -0.24894734D-09
 -0.19087703D-09 -0.95261017D-10 -0.33561388D-01 -0.25732744D-01 -0.12842443D-01
 -0.32715191D+00 -0.25083933D+00 -0.12518641D+00 -0.52818583D-01 -0.28002681D-10
  0.17432511D-02  0.34532661D-01 -0.26833272D+00 -0.47592450D+00 -0.12451413D+01
  0.16171302D-11 -0.12732769D-08 -0.15508992D+00  0.13968639D+00  0.23693456D+00
  0.26974162D+00 -0.79105774D-01  0.76629186D-01  0.14103861D+00  0.22822709D+00
  0.30001090D+00  0.25731761D+00  0.87981260D-01  0.68607946D-01  0.30612732D-01
 -0.90399807D-01 -0.18464649D-09 -0.14226017D-09 -0.62459876D-10  0.12449659D-01
  0.95917911D-02  0.42113129D-02 -0.13318978D+01 -0.10261555D+01 -0.45053751D+00
 -0.72310426D-01  0.11095182D-09  0.74565949D-02  0.25106749D-01  0.49559279D+00
  0.45186890D+00  0.14620799D+00 -0.42002040D-12 -0.12043420D-08 -0.15064452D+00
  0.13980236D+00  0.23713126D+00  0.26996556D+00 -0.68993176D-01
MO   22     MO 0.0        OCC NO =    0.0000000  ORB. ENERGY =    0.000000
 -0.72905211D-01 -0.13449588D+00 -0.21711805D+00 -0.28262319D+00 -0.24116288D+00
 -0.83267747D-01  0.27247205D+00  0.12558212D+00 -0.35214537D+00  0.61170194D-10
  0.46901425D-10  0.23407098D-10 -0.58030588D-01 -0.44494174D-01 -0.22205711D-01
  0.23022972D-01  0.17652555D-01  0.88098619D-02  0.63820782D+00  0.59347681D-11
 -0.12924451D-02 -0.11819424D+00 -0.94145645D+00  0.45273015D+00 -0.59131876D+00
  0.15368939D-11  0.30264704D-09 -0.26620220D+00 -0.25333290D-01 -0.42970055D-01
 -0.48919889D-01 -0.25698999D+00 -0.20390874D-01 -0.37530094D-01 -0.60730777D-01
 -0.79832306D-01 -0.68471705D-01 -0.23411639D-01  0.22663663D-01  0.10112482D-01
 -0.29862295D-01  0.63576050D-10  0.48981920D-10  0.21505701D-10  0.24841267D-01
  0.19138857D-01  0.84029890D-02 -0.66763362D+00 -0.51437572D+00 -0.22583864D+00
  0.38348019D-01 -0.28202335D-10  0.15032610D-01  0.59012484D-01 -0.32217058D+00
 -0.23673051D+00  0.13360859D+00 -0.12402066D-12  0.25574119D-09 -0.30582501D+00
 -0.29952360D-01 -0.50804871D-01 -0.57839550D-01 -0.24123045D+00
MO   23     MO 0.0        OCC NO =    0.0000000  ORB. ENERGY =    0.000000
 -0.15501880D+00 -0.28597942D+00 -0.46165946D+00 -0.60094345D+00 -0.51278613D+00
 -0.17705273D+00 -0.36714577D+00 -0.16921715D+00  0.47450255D+00  0.18252435D-08
  0.13994809D-08  0.69843907D-09 -0.65786571D-01 -0.50440970D-01 -0.25173579D-01
 -0.83705623D+00 -0.64180162D+00 -0.32030399D+00  0.18712763D+00  0.19399736D-09
 -0.11556438D-02 -0.68587447D-01 -0.85741511D+00 -0.10373685D+01 -0.18632591D+01
 -0.80731647D-12  0.92152264D-08 -0.30192202D+00 -0.37622688D-02 -0.63815199D-02
 -0.72651349D-02 -0.45811347D-01  0.13464012D+00  0.24780969D+00  0.40100285D+00
  0.52712948D+00  0.45211589D+00  0.15458610D+00 -0.21547377D+00 -0.96143977D-01
  0.28391445D+00  0.15752607D-08  0.12136534D-08  0.53285922D-09  0.27923142D-01
  0.21513275D-01  0.94454866D-02 -0.59852873D+00 -0.46113412D+00 -0.20246272D+00
 -0.34596353D+00 -0.82523270D-09  0.16887993D-01 -0.22349794D+00  0.62981949D+00
  0.31299683D+00  0.18259979D+01  0.22619896D-12  0.83453750D-08 -0.34344023D+00
 -0.86522864D-02 -0.14675915D-01 -0.16708011D-01 -0.27821429D-01
MO   24     MO 0.0        OCC NO =    0.0000000  ORB. ENERGY =    0.000000
  0.95411434D-01  0.17601547D+00  0.28414354D+00  0.36987046D+00  0.31561113D+00
  0.10897294D+00  0.15649151D+00  0.72126796D-01 -0.20225107D+00  0.59630692D-09
  0.45721032D-09  0.22818000D-09 -0.54521777D-01 -0.41803840D-01 -0.20863046D-01
 -0.19454595D-01 -0.14916549D-01 -0.74444035D-02 -0.79477926D-02  0.62704332D-10
 -0.95998319D-02  0.25187647D+00  0.15469451D+00  0.11760384D+01  0.10753353D+01
  0.88057952D-12  0.30035248D-08 -0.24628630D+00 -0.29830697D-01 -0.50598508D-01
 -0.57604613D-01  0.10408799D+00  0.22304959D+00  0.41053032D+00  0.66431556D+00
  0.87326139D+00  0.74899122D+00  0.25609282D+00 -0.34695689D+00 -0.15481149D+00
  0.45716039D+00  0.52780333D-09  0.40664401D-09  0.17853862D-09  0.29793319D-01
  0.22954146D-01  0.10078107D-01  0.15360081D+00  0.11834114D+00  0.51958136D-01
 -0.11205202D+01 -0.27030454D-09  0.18289491D-01  0.31149446D+00  0.12071882D+01
  0.74631723D+00  0.97218075D+00  0.17269919D-12  0.26975153D-08 -0.37562929D+00
 -0.43554686D-01 -0.73876992D-01 -0.84106344D-01  0.11553389D+00
MO   25     MO 0.0        OCC NO =    0.0000000  ORB. ENERGY =    0.000000
 -0.73819894D-01 -0.13618329D+00 -0.21984205D+00 -0.28616903D+00 -0.24418856D+00
 -0.84312440D-01 -0.19465213D+00 -0.89714988D-01  0.25157019D+00 -0.23539379D-08
 -0.18048502D-08 -0.90074676D-09  0.59750774D-01  0.45813104D-01  0.22863950D-01
 -0.10354848D+01 -0.79394404D+00 -0.39623372D+00 -0.65944529D+00 -0.24853149D-09
  0.33617472D-02 -0.18451101D+00 -0.44622531D+00 -0.12802914D+00 -0.45232069D+00
  0.61252464D-12 -0.11867209D-07  0.27316795D+00  0.41317554D-01  0.70082392D-01
  0.79786326D-01  0.55862384D-01 -0.21093517D+00 -0.38823331D+00 -0.62823478D+00
 -0.82583221D+00 -0.70831149D+00 -0.24218373D+00  0.71646369D+00  0.31968470D+00
 -0.94403320D+00 -0.20636803D-08 -0.15899544D-08 -0.69807563D-09 -0.27140818D-01
 -0.20910537D-01 -0.91808521D-02  0.51968369D+00  0.40038827D+00  0.17579202D+00