test                                                                    
SP        ROB3LYP                                                     6-31G(d)            
Number of atoms                            I                4
Info1-9                                    I   N=           9
          12          11           0           0           0         110
           1          18        -502
Full Title                                 C   N=           1
test        
Route                                      C   N=           2
# rob3lyp/6-31G* nosymm 
Charge                                     I                0
Multiplicity                               I                2
Number of electrons                        I                9
Number of alpha electrons                  I                5
Number of beta electrons                   I                4
Number of basis functions                  I               21
Number of independent functions            I               21
Number of point charges in /Mol/           I                0
Number of translation vectors              I                0
Atomic numbers                             I   N=           4
           6           1           1           1
Nuclear charges                            R   N=           4
  6.00000000E+00  1.00000000E+00  1.00000000E+00  1.00000000E+00
Current cartesian coordinates              R   N=          12
  0.00000000E+00  0.00000000E+00  1.44633968E+00 -9.64650385E-01  1.67107536E+00
  2.20005128E+00  1.92951998E+00 -1.24721924E-04  2.20005128E+00 -9.64867703E-01
 -1.67095064E+00  2.20005128E+00
Number of symbols in /Mol/                 I                0
Force Field                                I                0
Atom Types                                 C   N=           4
                                                
Int Atom Types                             I   N=           4
           0           0           0           0
MM charges                                 R   N=           4
  0.00000000E+00  0.00000000E+00  0.00000000E+00  0.00000000E+00
Integer atomic weights                     I   N=           4
          12           1           1           1
Real atomic weights                        R   N=           4
  1.20000000E+01  1.00782504E+00  1.00782504E+00  1.00782504E+00
Atom fragment info                         I   N=           4
           0           0           0           0
Atom residue num                           I   N=           4
           0           0           0           0
Nuclear spins                              I   N=           4
           0           1           1           1
Nuclear ZEff                               R   N=           4
 -3.60000000E+00 -1.00000000E+00 -1.00000000E+00 -1.00000000E+00
Nuclear ZNuc                               R   N=           4
  6.00000000E+00  1.00000000E+00  1.00000000E+00  1.00000000E+00
Nuclear QMom                               R   N=           4
  0.00000000E+00  0.00000000E+00  0.00000000E+00  0.00000000E+00
Nuclear GFac                               R   N=           4
  0.00000000E+00  2.79284600E+00  2.79284600E+00  2.79284600E+00
MicOpt                                     I   N=           4
          -1          -1          -1          -1
Number of residues                         I                0
Number of secondary structures             I                0
Number of contracted shells                I               10
Number of primitive shells                 I               23
Pure/Cartesian d shells                    I                1
Pure/Cartesian f shells                    I                0
Highest angular momentum                   I                2
Largest degree of contraction              I                6
Shell types                                I   N=          10
           0          -1          -1           2           0           0
           0           0           0           0
Number of primitives per shell             I   N=          10
           6           3           1           1           3           1
           3           1           3           1
Shell to atom map                          I   N=          10
           1           1           1           1           2           2
           3           3           4           4
Primitive exponents                        R   N=          23
  3.04752488E+03  4.57369518E+02  1.03948685E+02  2.92101553E+01  9.28666296E+00
  3.16392696E+00  7.86827235E+00  1.88128854E+00  5.44249258E-01  1.68714478E-01
  8.00000000E-01  1.87311370E+01  2.82539436E+00  6.40121692E-01  1.61277759E-01
  1.87311370E+01  2.82539436E+00  6.40121692E-01  1.61277759E-01  1.87311370E+01
  2.82539436E+00  6.40121692E-01  1.61277759E-01
Contraction coefficients                   R   N=          23
  1.83473713E-03  1.40373228E-02  6.88426223E-02  2.32184443E-01  4.67941348E-01
  3.62311985E-01 -1.19332420E-01 -1.60854152E-01  1.14345644E+00  1.00000000E+00
  1.00000000E+00  3.34946043E-02  2.34726953E-01  8.13757326E-01  1.00000000E+00
  3.34946043E-02  2.34726953E-01  8.13757326E-01  1.00000000E+00  3.34946043E-02
  2.34726953E-01  8.13757326E-01  1.00000000E+00
P(S=P) Contraction coefficients            R   N=          23
  0.00000000E+00  0.00000000E+00  0.00000000E+00  0.00000000E+00  0.00000000E+00
  0.00000000E+00  6.89990666E-02  3.16423961E-01  7.44308291E-01  1.00000000E+00
  0.00000000E+00  0.00000000E+00  0.00000000E+00  0.00000000E+00  0.00000000E+00
  0.00000000E+00  0.00000000E+00  0.00000000E+00  0.00000000E+00  0.00000000E+00
  0.00000000E+00  0.00000000E+00  0.00000000E+00
Coordinates of each shell                  R   N=          30
  0.00000000E+00  0.00000000E+00  1.44633968E+00  0.00000000E+00  0.00000000E+00
  1.44633968E+00  0.00000000E+00  0.00000000E+00  1.44633968E+00  0.00000000E+00
  0.00000000E+00  1.44633968E+00 -9.64650385E-01  1.67107536E+00  2.20005128E+00
 -9.64650385E-01  1.67107536E+00  2.20005128E+00  1.92951998E+00 -1.24721924E-04
  2.20005128E+00  1.92951998E+00 -1.24721924E-04  2.20005128E+00 -9.64867703E-01
 -1.67095064E+00  2.20005128E+00 -9.64867703E-01 -1.67095064E+00  2.20005128E+00
Num ILSW                                   I              100
ILSW                                       I   N=         100
           0           1           0           0           2           0
           0           0           0           0         402          -1
           5           0           0           0           0           0
           0           0           1           1           0           0
           1           1           0           0           0           0
           0           0      100000           0          -1           0
           0           0           0           0           0           0
           0           0           0           1           0           0
           0 -2000000000           1           0           0           0
           0           0           4          52           0           0
           0           0           5           0           0           0
           0           0           0           0           0           1
           0           0           0           0           0           0
           0           0           0           0           0           0
           0           0           0           0           0           0
           0           0           0           0           0           0
           0           0           0           0
Num RLSW                                   I               52
RLSW                                       R   N=          52
  8.00000000E-01  7.20000000E-01  1.00000000E+00  8.10000000E-01  2.00000000E-01
  0.00000000E+00  0.00000000E+00  1.00000000E+00  0.00000000E+00  0.00000000E+00
  0.00000000E+00  0.00000000E+00  1.00000000E+00  0.00000000E+00  0.00000000E+00
  0.00000000E+00  0.00000000E+00  1.00000000E+00  0.00000000E+00  0.00000000E+00
  0.00000000E+00  0.00000000E+00  1.00000000E+00  0.00000000E+00  0.00000000E+00
  0.00000000E+00  0.00000000E+00  1.00000000E+00  0.00000000E+00  0.00000000E+00
  0.00000000E+00  0.00000000E+00  1.00000000E+00  0.00000000E+00  0.00000000E+00
  0.00000000E+00  0.00000000E+00  0.00000000E+00  1.00000000E+00  1.00000000E+00
  0.00000000E+00  1.00000000E+00  0.00000000E+00  0.00000000E+00  0.00000000E+00
  0.00000000E+00  0.00000000E+00  0.00000000E+00  0.00000000E+00  0.00000000E+00
  0.00000000E+00  0.00000000E+00
MxBond                                     I                3
NBond                                      I   N=           4
           3           1           1           1
IBond                                      I   N=          12
           2           3           4           1           0           0
           1           0           0           1           0           0
RBond                                      R   N=          12
  1.00000000E+00  1.00000000E+00  1.00000000E+00  1.00000000E+00  0.00000000E+00
  0.00000000E+00  1.00000000E+00  0.00000000E+00  0.00000000E+00  1.00000000E+00
  0.00000000E+00  0.00000000E+00
Virial Ratio                               R      2.010194185751495E+00
SCF Energy                                 R     -3.982376725903428E+01
Total Energy                               R     -3.982376725903428E+01
S**2                                       R      7.499999999999965E-01
S**2 after annihilation                    R      7.499999999999907E-01
RMS Density                                R      4.293639824752562E-09
Job Status                                 I                1
Nuclear derivative order                   I                0
External E-field                           R   N=          35
  0.00000000E+00  0.00000000E+00  0.00000000E+00  0.00000000E+00  0.00000000E+00
  0.00000000E+00  0.00000000E+00  0.00000000E+00  0.00000000E+00  0.00000000E+00
  0.00000000E+00  0.00000000E+00  0.00000000E+00  0.00000000E+00  0.00000000E+00
  0.00000000E+00  0.00000000E+00  0.00000000E+00  0.00000000E+00  0.00000000E+00
  0.00000000E+00  0.00000000E+00  0.00000000E+00  0.00000000E+00  0.00000000E+00
  0.00000000E+00  0.00000000E+00  0.00000000E+00  0.00000000E+00  0.00000000E+00
  0.00000000E+00  0.00000000E+00  0.00000000E+00  0.00000000E+00  0.00000000E+00
IOpCl                                      I                0
IROHF                                      I                1
Alpha Orbital Energies                     R   N=          21
 -1.01941959E+01 -6.65959714E-01 -3.92586743E-01 -3.92586616E-01 -1.12441532E-01
  1.21727167E-01  1.72875346E-01  1.72875489E-01  5.34264714E-01  5.34264816E-01
  5.56216760E-01  8.58772901E-01  8.81695279E-01  8.81695580E-01  9.74159066E-01
  1.65836143E+00  1.65836150E+00  1.86138247E+00  2.23724032E+00  2.23724074E+00
  4.07995099E+00
Alpha MO coefficients                      R   N=         441
  9.92857993E-01  4.86347191E-02 -1.11256711E-10  4.83856287E-10  7.48351521E-04
 -1.20546272E-02 -5.80755342E-10 -1.15482745E-09 -1.52557553E-03 -9.34828023E-03
 -9.34827988E-03 -9.49360553E-03 -1.51232905E-10 -1.50097949E-09  1.78325861E-10
 -2.45480297E-04  2.55822837E-03 -2.45479055E-04  2.55822606E-03 -2.45480008E-04
  2.55822647E-03 -1.94152491E-01  3.79228175E-01 -4.20682713E-09  1.03262537E-07
  1.11091742E-01  3.63094125E-01  1.52100148E-08  2.16802331E-08  4.85742878E-02
  4.78647905E-03  4.78650020E-03 -1.09739200E-02  1.31297491E-09  6.28855834E-10
  1.20896094E-08  1.54702304E-01  4.98156768E-02  1.54702158E-01  4.98156497E-02
  1.54702185E-01  4.98156507E-02  3.61286097E-08 -6.16317194E-08  3.40449416E-02
  4.50660371E-01  2.11391214E-08 -1.55626761E-07  1.44251157E-02  1.90948195E-01
 -7.53743632E-09  1.30300541E-03 -1.30300543E-03  1.05221334E-09 -1.99682820E-02
  1.75922645E-03  2.32872624E-02  2.32244826E-01  2.07436997E-01  2.11638164E-02
  1.89031429E-02 -2.53408694E-01 -2.26340212E-01  3.52452621E-10  1.62299293E-08
  4.50660365E-01 -3.40449861E-02 -1.08483027E-07  6.62339738E-08  1.90948278E-01
 -1.44251062E-02 -4.89985118E-08  1.72930443E-02 -1.72930586E-02 -1.07790887E-08
  1.50460055E-03  2.32872493E-02 -1.75922710E-03 -1.58524478E-01 -1.41591340E-01
  2.80392181E-01  2.50441524E-01 -1.21867633E-01 -1.08850074E-01  7.91928321E-02
 -1.74489801E-01  4.99817212E-08 -2.75608811E-08  5.59585296E-01 -3.24420210E-01
  6.11772784E-08 -2.87788963E-08  4.46285891E-01  7.02753935E-03  7.02754463E-03
  3.45412905E-03  2.91431874E-09 -1.88500088E-08  9.82475569E-09  5.77836348E-02
  6.23435456E-02  5.77836704E-02  6.23436016E-02  5.77836631E-02  6.23436029E-02
 -1.45657692E-01  1.98252121E-01  5.19544599E-07 -3.54858195E-07  1.71553499E-01
  2.27934345E+00  1.31074005E-06 -7.23548425E-07  6.49647452E-01 -1.20075096E-02
 -1.20074950E-02 -6.96155037E-03 -1.72006384E-08  3.67776722E-09  9.89191568E-09
 -3.16712918E-02 -1.16774502E+00 -3.16715857E-02 -1.16774762E+00 -3.16715462E-02
 -1.16774663E+00 -1.27156060E-07  1.55134289E-07 -4.12867730E-01 -5.16946616E-02
  1.70080301E-07  2.61564826E-06 -1.27601284E+00 -1.59767999E-01  7.48612111E-07
  1.38649645E-02 -1.38649630E-02  2.81355739E-09 -2.00773634E-03  3.65459602E-03
  4.57583861E-04 -4.50163058E-02 -6.68345596E-01  1.14981357E-01  1.70709694E+00
 -6.99651098E-02 -1.03875490E+00  1.25110284E-07 -1.46318628E-07  5.16945892E-02
 -4.12867692E-01 -1.35959581E-07 -2.89116872E-06  1.59767913E-01 -1.27601379E+00
 -7.91080163E-07 -1.73875025E-03  1.73875376E-03  1.75569239E-08 -1.60098507E-02
 -4.57590506E-04  3.65459605E-03  1.06778709E-01  1.58532088E+00 -1.44042977E-02
 -2.13854715E-01 -9.23745396E-02 -1.37146199E+00  8.56502103E-08 -1.50118046E-07
 -5.37978464E-01  5.20324475E-01  1.90394575E-06 -1.36044369E-06  1.04910485E+00
 -1.01467906E+00 -2.62683425E-06 -5.27455995E-02  5.27455867E-02 -3.63853970E-08
 -5.88837833E-02 -4.24668993E-02  4.10733713E-02  4.48592272E-01  2.15668189E-01
 -3.35396179E-01 -1.61246056E-01 -1.13195412E-01 -5.44205718E-02  3.43667341E-08
 -2.30314374E-08 -5.20324724E-01 -5.37978409E-01  1.10087112E-06 -2.97811386E-07
  1.01467868E+00  1.04910597E+00 -1.33410923E-06 -5.09948688E-02  5.09949335E-02
 -7.57359451E-09  6.09053392E-02 -4.10733688E-02 -4.24669571E-02 -1.28287517E-01
 -6.16769818E-02 -3.24348046E-01 -1.55935361E-01  4.52636133E-01  2.17612328E-01
 -2.91769620E-02  2.10057352E-01 -1.68086530E-06  4.82175188E-07 -1.02568098E+00
  1.00656812E-01  3.22303405E-06 -7.63940825E-07  1.19024300E+00  7.96269716E-03
  7.96301185E-03  2.54249961E-02 -5.30812275E-08 -1.41221893E-07  2.46273184E-08
 -5.93856115E-02 -1.29546423E-01 -5.93872800E-02 -1.29547218E-01 -5.93859929E-02
 -1.29546569E-01 -9.99959092E-02 -5.71256150E-01  7.61096314E-07 -3.26119705E-06
  1.60988889E-01  1.83582117E+00 -8.89138629E-07  5.51589067E-06  4.47958270E-01
 -1.63092881E-01 -1.63092677E-01  1.38288133E-01 -6.87433630E-07 -2.66838994E-07
  3.73266784E-07 -7.04990703E-01 -1.11470299E-01 -7.04995611E-01 -1.11460785E-01
 -7.04996506E-01 -1.11457903E-01  8.15801915E-08  2.92937315E-06  8.37842008E-01
  1.03286549E-01  1.48649559E-07 -6.80448516E-06 -1.21747526E+00 -1.50086553E-01
 -1.37015525E-06 -1.38248681E-01  1.38249150E-01 -8.95410239E-09  1.97109493E-02
 -1.16275532E-01 -1.43341096E-02  3.26609816E-01 -6.33558082E-01 -8.30682688E-01
  1.61136650E+00  5.04073543E-01 -9.77803191E-01 -4.16897863E-07 -4.66753963E-06
 -1.03286645E-01  8.37842372E-01  4.28947687E-07  1.26036316E-05  1.50086666E-01
 -1.21747560E+00  2.77952645E-06  1.70694050E-02 -1.70710132E-02  5.04103586E-07
  1.59636070E-01  1.43340853E-02 -1.16275680E-01 -7.70624483E-01  1.49485603E+00
  1.02456041E-01 -1.98752259E-01  6.68160565E-01 -1.29610978E+00 -1.47366144E-03
 -1.90189679E+00  1.12938490E-06 -9.93896013E-07 -3.09710834E-01  4.22385722E+00
 -1.49570326E-06  1.74364657E-06  8.43008371E-01 -1.06402451E-01 -1.06401879E-01
 -8.79818877E-02 -2.15706958E-07 -2.62527913E-07  1.41327018E-07  2.64470622E-01
 -1.27507528E+00  2.64467771E-01 -1.27506926E+00  2.64468985E-01 -1.27507155E+00
 -1.56419152E-09 -5.42570015E-08 -1.82410407E-03 -8.10217286E-03 -1.16616652E-08
  1.18265015E-07 -2.98319585E-03 -1.32505758E-02  3.48490437E-08 -1.18114847E-01
  1.18114237E-01  6.18646157E-07  6.06346694E-01  1.72044591E-01  7.64178293E-01
  1.00882063E-02  8.59450198E-05  3.01335202E-03  2.56504165E-05 -1.31016411E-02
 -1.11665111E-04 -1.05370991E-08 -1.38721856E-07 -8.10217180E-03  1.82408808E-03
  1.67844930E-08  3.86459266E-07 -1.32505822E-02  2.98318663E-03  1.21497593E-07
 -5.25111288E-01  5.25111054E-01  2.57489878E-07 -1.36386893E-01  7.64178722E-01
 -1.72044617E-01 -9.30409948E-03 -7.93535988E-05  1.33885635E-02  1.14017672E-04
 -4.08480981E-03 -3.48713156E-05 -4.88864721E-02 -3.43931974E-01 -8.80836211E-08
  6.23763360E-08  1.90959365E-02  1.20473742E+00  4.00880167E-07  1.25689977E-07
  3.40254097E-01  4.94531163E-01  4.94531200E-01 -1.03244614E+00  5.19948725E-07
  4.90614363E-07  3.02337400E-07 -3.44621614E-01 -2.22876380E-01 -3.44622069E-01
 -2.22876112E-01 -3.44621769E-01 -2.22876023E-01 -2.96008308E-08  1.52609735E-07
 -1.27806740E-01 -5.88009643E-02  1.14269996E-07  1.50338117E-07 -3.76395519E-01
 -1.73171200E-01  8.89723698E-08 -6.96790746E-01  6.96790977E-01 -2.18279037E-07
  3.70360212E-01 -6.38169645E-01 -2.93607387E-01 -7.12534105E-02  9.21674542E-03
  7.02044677E-01 -9.08082311E-02 -6.30792120E-01  8.15916384E-02  5.57080744E-08
 -1.04710073E-07  5.88010650E-02 -1.27807139E-01 -1.60693990E-07 -8.23314005E-07
  1.73170710E-01 -3.76395904E-01 -2.74295255E-07  3.20741525E-01 -3.20741860E-01
  3.87404717E-07  8.04584529E-01  2.93607037E-01 -6.38170208E-01  7.69514507E-01
 -9.95349802E-02 -3.23049558E-01  4.17862237E-02 -4.46463776E-01  5.77491922E-02
 -4.72715361E-01  3.01997197E+00  1.72215423E-08 -7.82375361E-08 -7.28460422E-02
  1.97636494E+00  1.13218868E-07  1.70560341E-07  2.76186919E-01 -1.84485026E+00
 -1.84485041E+00 -1.84647379E+00  5.10307487E-08  7.51515656E-08 -3.79101001E-08
  1.44569438E-01 -4.90218266E-01  1.44569062E-01 -4.90217776E-01  1.44569247E-01
 -4.90217898E-01
Orthonormal basis                          R   N=         441
  3.57584619E-02  1.69084215E-01  2.61419318E-09  1.53099500E-08  2.26283677E-02
  1.86736335E-01  1.24664242E-08  1.77153814E-08  3.56096445E-02  1.32984305E-01
  1.32984318E-01  1.24997352E-01  2.04937987E-10 -1.68996008E-09  6.34831621E-09
  8.46937360E-02  1.36254511E-01  8.46936789E-02  1.36254467E-01  8.46936891E-02
  1.36254469E-01 -5.42678203E-09 -2.73750616E-08  5.86139159E-05  2.83957440E-01
  2.13876064E-08 -4.00305067E-08  7.39518075E-05  3.58161267E-01  1.27379979E-08
  4.26834148E-07 -4.70217463E-07 -1.96061056E-08 -8.23413977E-02  1.32667740E-05
  6.43286686E-02  2.35814925E-01  1.87511877E-01  3.85117744E-05  3.06583927E-05
 -2.35853439E-01 -1.87542611E-01 -1.64151470E-08 -4.85049084E-08  2.87880846E-01
 -5.93847275E-05 -7.93035172E-10 -1.23047242E-08  3.62720453E-01 -7.48018272E-05
  1.78421960E-08  3.89955701E-02 -3.89956319E-02 -4.05984727E-08  1.00658396E-06
  6.46527527E-02 -1.33486649E-05 -1.35561865E-01 -1.09100356E-01  2.71057353E-01
  2.18147488E-01 -1.35495380E-01 -1.09046954E-01 -5.85385791E-02 -1.54782044E-01
 -4.73472976E-08  1.70305637E-09  4.57126473E-01 -8.27617600E-02 -2.44060472E-08
 -1.67974310E-08  4.89884382E-01 -9.57772770E-02 -9.57772043E-02 -1.31208119E-01
  3.13692151E-08 -2.47919029E-08  1.40512760E-08  1.08949656E-01  7.36924974E-02
  1.08949600E-01  7.36924901E-02  1.08949701E-01  7.36925343E-02 -8.94508436E-08
 -7.85446628E-08  5.43715663E-05  2.80337243E-01 -1.14072033E-07  1.35365877E-08
  4.61935024E-05  2.38298921E-01 -5.71372300E-08  6.31568660E-08 -1.26007698E-07
 -7.34463570E-08  6.46835449E-01 -9.79184110E-05 -5.05335888E-01 -1.95355792E-01
  3.45675681E-02 -2.90570827E-05  5.20897369E-06  1.95385011E-01 -3.45725958E-02
  2.88126406E-09 -4.05181809E-09 -2.38660044E-01  4.62705069E-05  1.71293176E-08
  3.00127930E-08 -1.90823372E-01  3.70206505E-05  4.52901093E-08  1.06447458E-01
 -1.06447473E-01  5.61934553E-09 -2.54845485E-07  8.72137148E-01 -1.69260498E-04
 -1.00427505E-01  1.28587189E-02  2.00810035E-01 -2.57115994E-02 -1.00382587E-01
  1.28529615E-02 -1.21953316E-06 -1.96491732E-07 -2.08434696E-13  2.33973020E-14
 -2.95423938E-07  1.43353084E-08 -5.06803241E-14 -5.62162238E-14 -1.83114173E-07
  4.96072052E-08  4.96074672E-08 -1.47172648E-07  6.15640791E-01  1.53116650E-04
  7.88026898E-01  1.93510154E-07  9.36172040E-08  1.93510169E-07  9.36172922E-08
  1.93510152E-07  9.36173115E-08  9.72387229E-01  9.43607046E-02  9.01091801E-08
 -9.67256281E-09  1.34614979E-01 -1.66270348E-02  2.04755909E-08  2.19052618E-08
  7.79720198E-02 -5.62508720E-02 -5.62509830E-02  2.70993574E-02  9.43706139E-07
  6.58325776E-09  9.47142229E-07 -7.47299505E-02 -5.59802157E-02 -7.47299557E-02
 -5.59802484E-02 -7.47299539E-02 -5.59802578E-02 -2.17714261E-01  3.85523309E-01
  3.51136223E-07 -2.27745116E-07  4.53207577E-01 -9.68157090E-02 -4.70758414E-08
  1.80003098E-08  1.27581464E-01  6.69153754E-02  6.69144323E-02  6.87262760E-01
  4.53240479E-07 -5.49871350E-08 -2.07067550E-08 -2.23872279E-01 -2.46944154E-01
 -2.23872314E-01 -2.46944368E-01 -2.23872503E-01 -2.46944342E-01  4.49349259E-08
 -2.24211785E-07 -3.77693453E-01  7.33578502E-05 -2.26163546E-07  1.52965955E-07
 -1.40522654E-01  2.73627443E-05  5.76358034E-08  6.50906908E-01 -6.50907169E-01
 -2.06587141E-07 -1.33053715E-07 -3.93594647E-01  7.65808973E-05 -1.48366683E-01
 -2.10339595E-02  2.96666645E-01  4.20592695E-02 -1.48300054E-01 -2.10245718E-02
  5.17833903E-04 -2.52549282E-01 -1.26843397E-07  2.05172535E-08 -2.62103108E-01
  1.61161261E-01  4.35422015E-08  4.76747218E-08  7.11912137E-02 -5.80111704E-01
 -5.80111124E-01  6.47960938E-01 -1.04629115E-07  1.73131888E-08  9.23956919E-08
 -8.01155483E-02  2.68220313E-01 -8.01155753E-02  2.68220330E-01 -8.01154244E-02
  2.68220293E-01  3.21531852E-08  1.74768067E-07  2.14471481E-04  1.08622592E+00
  1.96288677E-07 -1.09963115E-07 -7.65653304E-05 -3.86907394E-01 -9.81439686E-08
  1.08107277E-06 -1.10527577E-06  3.82495249E-07 -2.27363669E-01  3.48855536E-05
  1.77626352E-01 -1.28504013E-01 -3.71647512E-01 -1.92552221E-05 -5.72026078E-05
  1.28523697E-01  3.71704119E-01 -3.87251717E-08 -3.09046789E-07  1.02684452E+00
 -2.03173804E-04 -3.96804735E-07  2.40011890E-07 -4.61338448E-01  9.11369821E-05
  2.25889809E-07  3.10900017E-01 -3.10900189E-01 -4.46464260E-07  6.39160382E-07
  9.68819653E-02 -1.93238773E-05  1.77128915E-02  2.20670787E-01 -3.54176877E-02
 -4.41239121E-01  1.77042911E-02  2.20569266E-01 -2.87194070E-03  2.40211339E-01
 -2.11017655E-07  1.60977731E-07 -9.63598236E-01 -2.83786193E-01  2.05708744E-07
 -1.53344256E-07  1.11717043E+00  1.86395220E-01  1.86395412E-01  2.56435199E-02
  7.04663530E-08  6.76215524E-09 -2.26365879E-09 -1.19745828E-01 -6.81396144E-02
 -1.19745982E-01 -6.81393925E-02 -1.19745985E-01 -6.81395242E-02  1.11829401E-01
  1.26560818E-02  3.57272792E-07 -5.01560576E-07 -2.40776371E-01 -3.02994230E-01
 -8.86289633E-07  8.43606942E-07 -7.04450714E-02 -1.50211800E-01 -1.50211604E-01
  5.17035173E-01 -5.47820067E-07 -3.56352708E-07  1.84473267E-07  7.85676592E-01
 -4.05867850E-01  7.85678981E-01 -4.05869030E-01  7.85678232E-01 -4.05868592E-01
 -1.01715458E-07  2.92372141E-07  7.09879035E-06  3.67570799E-02  3.30867647E-07
  1.59540671E-07  1.53350086E-04  7.81451912E-01  2.44501006E-07  1.23194198E-06
 -6.33327413E-07 -3.99071527E-07 -5.83774496E-01  8.94535880E-05  4.56069938E-01
 -1.00337793E+00  2.81449134E-01 -1.53205080E-04  4.31940253E-05  1.00352848E+00
 -2.81491436E-01 -1.06224767E-07  2.40728891E-07 -6.44184931E-02  1.27584986E-05
  3.87054618E-07  3.64719193E-07 -7.34359634E-01  1.44301880E-04  2.18203344E-07
 -6.03032858E-01  6.03033364E-01 -4.14950950E-07 -1.27342735E-06 -4.36827432E-01
  8.58721030E-05 -5.67675433E-01  1.54863970E-01  1.13508951E+00 -3.09656796E-01
 -5.67416708E-01  1.54793687E-01  2.82032317E-08  6.34480109E-07 -2.28780518E-04
 -5.74103324E-01  4.65400880E-08 -1.16503116E-06  8.50941379E-04  2.13349282E+00
 -1.75470178E-07  1.65695402E-05 -1.65196932E-05  9.74007602E-08 -8.83982998E-02
  2.77558270E-05  6.90605804E-02  2.98073102E-01 -2.00853042E+00  1.14161070E-04
 -7.73627582E-04 -2.98187427E-01  2.00930515E+00  5.43142560E-08  2.22119681E-07
  5.73591471E-01 -2.28729926E-04 -1.07489123E-08 -5.47135545E-07 -2.13480013E+00
  8.50550574E-04 -6.31404659E-08 -8.08007108E-02  8.08008298E-02  1.98704462E-07
 -1.79917280E-05 -6.98901753E-02  2.76358474E-05  1.70865720E-01 -1.16027227E+00
 -3.41532512E-01  2.31920361E+00  1.70667058E-01 -1.15893083E+00 -4.21959369E-01
  3.61281452E+00  4.78691340E-08  3.43891969E-08  8.21447969E-03 -3.87565192E-01
  5.67179118E-08 -5.07731545E-07 -2.09434113E-01 -1.62793012E+00 -1.62793034E+00
 -1.53037633E+00  4.91212947E-08  3.98047468E-08 -8.62119748E-08  1.59143689E-01
  1.65619934E-01  1.59143504E-01  1.65619290E-01  1.59143576E-01  1.65619129E-01
 -3.15351082E-01 -2.40765923E-01 -3.81617030E-09 -2.23357104E-07 -2.14904280E-01
  5.62241050E+00 -8.06274624E-08  1.57837976E-06  1.25620873E+00 -7.79634029E-01
 -7.79633839E-01 -9.83564877E-01 -3.52587858E-08  3.65838065E-08  1.28876211E-07
 -1.75033865E-02 -1.71993036E+00 -1.75037851E-02 -1.71992725E+00 -1.75034600E-02
 -1.71992765E+00
Total SCF Density                          R   N=         231
  2.05319587E+00 -6.44997923E-02  3.22805380E-01  8.14846743E-09 -1.49094205E-09
  4.08507645E-01 -8.77971386E-09  2.65212414E-08 -3.97569294E-08  4.08507662E-01
  2.66368086E-03 -1.33108975E-02 -6.93044581E-08  3.39610255E-08  3.37819574E-01
 -1.90620079E-01  3.30826516E-01  2.98340991E-08 -6.08618145E-08 -1.00885303E-01
  3.69213788E-01 -1.03761857E-09  5.22489621E-09  1.73087846E-01 -6.97581071E-09
 -3.20697547E-09  1.20168486E-08  7.33386580E-02  7.96433128E-10 -2.65236315E-09
 -6.98175395E-09  1.73087774E-01 -8.62733487E-11 -3.62359343E-08  1.22356016E-09
  7.33385940E-02  1.34516459E-02 -4.11792509E-02 -2.27788084E-08 -5.72704071E-09
  2.60525143E-01 -1.09473305E-01  9.85213969E-09 -1.21987903E-08  2.03894674E-01
 -1.98651123E-02  1.49479993E-03  1.56753011E-02 -3.05631612E-06  4.98198899E-03
  1.42139101E-03  6.64174667E-03 -1.29491174E-06  3.62981258E-03  8.71482167E-04
 -1.98651196E-02  1.49481428E-03 -1.56753134E-02  3.05885058E-06  4.98200403E-03
  1.42140087E-03 -6.64175097E-03  1.29537349E-06  3.62982042E-03 -3.31506911E-04
  8.71483624E-04 -1.43168342E-02 -9.84938730E-03 -9.37668446E-09 -6.88446011E-10
 -5.19553074E-04 -8.86083730E-03 -4.19762609E-09  1.59502115E-10  5.04394785E-04
  9.67185507E-05  9.67188383E-05  4.33041941E-04 -2.02113907E-09  2.98280315E-09
 -3.51032854E-06 -1.81002750E-02  7.51633785E-10  6.42615861E-09 -1.48779063E-06
 -7.66922288E-03  1.58220734E-09  7.24516308E-10 -6.95313652E-10 -9.03372698E-11
  8.01992219E-04 -4.57396029E-09  4.15914706E-09  2.11090661E-02 -8.77380981E-10
 -1.53888784E-08  9.14542770E-09  8.94407443E-03  1.37933010E-10 -1.06554220E-08
  8.09999333E-04 -8.10000197E-04 -5.48741464E-10 -1.81443511E-07  1.09078172E-03
 -1.88086809E-09  4.54489471E-09 -8.77056804E-10  2.11090783E-02  9.55040436E-09
 -1.89359993E-09  1.38378324E-10  8.94407552E-03  5.37994058E-09 -1.57744968E-07
  1.58157609E-07 -1.47858684E-10 -9.35307113E-04  1.54991175E-11  1.09078294E-03
 -5.59830634E-02  1.07228379E-01 -1.27067874E-01  2.20121036E-01  6.67068462E-02
  9.36026417E-02 -5.38396273E-02  9.32669307E-02  4.08178905E-02 -2.98588404E-03
  6.76914559E-03 -3.19112441E-03 -9.75209182E-03 -6.56605652E-03  1.13744578E-02
  2.09340014E-01 -9.32658372E-03  2.71535108E-02 -1.13494846E-01  1.96608227E-01
  4.59586205E-02  1.58882927E-02 -4.80886345E-02  8.33043810E-02  3.26547720E-02
 -3.48933252E-03  5.22368909E-03 -9.26573988E-04 -8.71039742E-03 -5.86468949E-03
  1.01594640E-02  1.60258106E-01  1.35019441E-01 -5.59830162E-02  1.07228302E-01
  2.54164329E-01 -1.64787794E-05  6.67067295E-02  9.36026478E-02  1.07691398E-01
 -6.98386305E-06  4.08178523E-02  1.16444459E-02 -7.86119923E-03 -3.19113101E-03
 -1.45307769E-06  1.31335883E-02 -8.48046485E-07 -2.78630432E-02 -5.16075239E-02
  2.09339953E-01 -9.32658669E-03  2.71535162E-02  2.27015253E-01 -1.47530665E-05
  4.59585528E-02  1.58883655E-02  9.61881211E-02 -6.24877631E-06  3.26547588E-02
  9.57822974E-03 -7.84388406E-03 -9.26582004E-04 -1.29735872E-06  1.17306971E-02
 -7.60315441E-07 -5.16075342E-02 -5.42152686E-02  1.60258179E-01  1.35019583E-01
 -5.59830491E-02  1.07228344E-01 -1.27096391E-01 -2.20104518E-01  6.67068070E-02
  9.36027016E-02 -5.38517207E-02 -9.32599535E-02  4.08178952E-02 -2.98368642E-03
  6.76694503E-03 -3.19112350E-03  9.75354890E-03 -6.56753136E-03 -1.13735995E-02
 -2.78630707E-02 -5.16075037E-02 -2.78630568E-02 -5.16075077E-02  2.09339977E-01
 -9.32660414E-03  2.71535354E-02 -1.13520304E-01 -1.96593520E-01  4.59586213E-02
  1.58883946E-02 -4.80994308E-02 -8.32981617E-02  3.26547984E-02 -3.48736813E-03
  5.22172414E-03 -9.26574800E-04  8.71169890E-03 -5.86600613E-03 -1.01587020E-02
 -5.16075076E-02 -5.42152008E-02 -5.16075014E-02 -5.42152280E-02  1.60258122E-01
  1.35019472E-01
Spin SCF Density                           R   N=         231
  6.27150466E-03 -1.38183415E-02  3.04466905E-02  3.95819406E-09 -8.72130057E-09
  2.49800181E-15 -2.18262423E-09  4.80909265E-09 -1.37754028E-15  7.49400542E-16
  4.43151444E-02 -9.76419267E-02  2.79690363E-08 -1.54226638E-08  3.13135703E-01
 -2.56917552E-02  5.66080177E-02 -1.62150805E-08  8.94130683E-09 -1.81540779E-01
  1.05248472E-01  4.84480194E-09 -1.06748111E-08  3.05311332E-15 -1.68609970E-15
  3.42339054E-08 -1.98471455E-08  3.74006381E-15 -2.27908230E-09  5.02162387E-09