Generated by Multiwfn
SP        UB3LYP                                              6-31G(d)
Number of atoms                            I                4
Charge                                     I                0
Multiplicity                               I                2
Number of electrons                        I                9
Number of alpha electrons                  I                5
Number of beta electrons                   I                4
Number of basis functions                  I               21
Number of independent functions            I               21
Atomic numbers                             I   N=           4
           6           1           1           1
Nuclear charges                            R   N=           4
  6.00000000E+00  1.00000000E+00  1.00000000E+00  1.00000000E+00
Current cartesian coordinates              R   N=          12
  0.00000000E+00  0.00000000E+00 -1.44633968E+00  9.64867703E-01 -1.67095064E+00
 -2.20005128E+00 -1.92951998E+00 -1.24721924E-04 -2.20005128E+00  9.64650385E-01
  1.67107536E+00 -2.20005128E+00
Translation vectors                        R   N=           0
Number of contracted shells                I               12
Number of primitive shells                 I               27
Highest angular momentum                   I                2
Largest degree of contraction              I                6
Shell types                                I   N=          12
           0           0           1           0           1           2
           0           0           0           0           0           0
Number of primitives per shell             I   N=          12
           6           3           3           1           1           1
           3           1           3           1           3           1
Shell to atom map                          I   N=          12
           1           1           1           1           1           1
           2           2           3           3           4           4
Primitive exponents                        R   N=          27
  3.04752488E+03  4.57369518E+02  1.03948685E+02  2.92101553E+01  9.28666296E+00
  3.16392696E+00  7.86827235E+00  1.88128854E+00  5.44249258E-01  7.86827235E+00
  1.88128854E+00  5.44249258E-01  1.68714478E-01  1.68714478E-01  8.00000000E-01
  1.87311370E+01  2.82539436E+00  6.40121692E-01  1.61277759E-01  1.87311370E+01
  2.82539436E+00  6.40121692E-01  1.61277759E-01  1.87311370E+01  2.82539436E+00
  6.40121692E-01  1.61277759E-01
Contraction coefficients                   R   N=          27
  1.83473713E-03  1.40373228E-02  6.88426223E-02  2.32184443E-01  4.67941348E-01
  3.62311985E-01 -1.19332420E-01 -1.60854152E-01  1.14345644E+00  6.89990666E-02
  3.16423961E-01  7.44308291E-01  1.00000000E+00  1.00000000E+00  1.00000000E+00
  3.34946043E-02  2.34726953E-01  8.13757326E-01  1.00000000E+00  3.34946043E-02
  2.34726953E-01  8.13757326E-01  1.00000000E+00  3.34946043E-02  2.34726953E-01
  8.13757326E-01  1.00000000E+00
Coordinates of each shell                  R   N=          36
  0.00000000E+00  0.00000000E+00 -1.44633968E+00  0.00000000E+00  0.00000000E+00
 -1.44633968E+00  0.00000000E+00  0.00000000E+00 -1.44633968E+00  0.00000000E+00
  0.00000000E+00 -1.44633968E+00  0.00000000E+00  0.00000000E+00 -1.44633968E+00
  0.00000000E+00  0.00000000E+00 -1.44633968E+00  9.64867703E-01 -1.67095064E+00
 -2.20005128E+00  9.64867703E-01 -1.67095064E+00 -2.20005128E+00 -1.92951998E+00
 -1.24721924E-04 -2.20005128E+00 -1.92951998E+00 -1.24721924E-04 -2.20005128E+00
  9.64650385E-01  1.67107536E+00 -2.20005128E+00  9.64650385E-01  1.67107536E+00
 -2.20005128E+00
Virial Ratio                               R      2.010194185751498E+00
Total Energy                               R     -3.982376725903434E+01
Alpha Orbital Energies                     R   N=          21
 -1.01941959E+01 -6.65959714E-01 -3.92586743E-01 -3.92586616E-01 -1.12441532E-01
  1.21727167E-01  1.72875346E-01  1.72875489E-01  5.34264714E-01  5.34264816E-01
  5.56216760E-01  8.58772901E-01  8.81695279E-01  8.81695580E-01  9.74159066E-01
  1.65836143E+00  1.65836150E+00  1.86138247E+00  2.23724032E+00  2.23724074E+00
  4.07995099E+00
Beta Orbital Energies                      R   N=          21
 -1.01941959E+01 -6.65959714E-01 -3.92586743E-01 -3.92586616E-01 -1.12441532E-01
  1.21727167E-01  1.72875346E-01  1.72875489E-01  5.34264714E-01  5.34264816E-01
  5.56216760E-01  8.58772901E-01  8.81695279E-01  8.81695580E-01  9.74159066E-01
  1.65836143E+00  1.65836150E+00  1.86138247E+00  2.23724032E+00  2.23724074E+00
  4.07995099E+00
Alpha MO coefficients                      R   N=         441
  9.92857993E-01  4.86347191E-02  1.11257339E-10  4.83856177E-10 -7.48351521E-04
 -1.20546272E-02  5.80755446E-10 -1.15482589E-09  1.52557553E-03 -9.34828023E-03
 -9.34827988E-03 -9.49360553E-03  1.51233759E-10 -1.50098090E-09 -1.78326907E-10
 -2.45480008E-04  2.55822647E-03 -2.45479055E-04  2.55822606E-03 -2.45480297E-04
  2.55822837E-03 -1.94152491E-01  3.79228175E-01  4.20682768E-09  1.03262537E-07
 -1.11091742E-01  3.63094125E-01 -1.52100185E-08  2.16802372E-08 -4.85742878E-02
  4.78647905E-03  4.78650020E-03 -1.09739200E-02 -1.31297462E-09  6.28856403E-10
 -1.20896094E-08  1.54702185E-01  4.98156507E-02  1.54702158E-01  4.98156497E-02
  1.54702304E-01  4.98156768E-02  3.61286089E-08 -6.16317240E-08 -3.40449438E-02
  4.50660371E-01 -2.11391189E-08 -1.55626740E-07 -1.44251167E-02  1.90948195E-01
  7.53743302E-09  1.30300550E-03 -1.30300551E-03  1.05221216E-09  1.99682820E-02
  1.75922656E-03 -2.32872623E-02 -2.53408695E-01 -2.26340212E-01  2.11638178E-02
  1.89031441E-02  2.32244825E-01  2.07436996E-01 -3.52451672E-10 -1.62299316E-08
  4.50660365E-01  3.40449884E-02 -1.08483029E-07 -6.62339730E-08  1.90948278E-01
  1.44251072E-02 -4.89985153E-08 -1.72930443E-02  1.72930586E-02  1.07790860E-08
  1.50460064E-03 -2.32872493E-02 -1.75922721E-03  1.21867632E-01  1.08850073E-01
 -2.80392181E-01 -2.50441524E-01  1.58524480E-01  1.41591341E-01 -7.91928321E-02
  1.74489801E-01  4.99817240E-08  2.75608799E-08  5.59585296E-01  3.24420210E-01
  6.11772732E-08  2.87788863E-08  4.46285891E-01 -7.02753935E-03 -7.02754463E-03
 -3.45412905E-03  2.91431766E-09  1.88500098E-08  9.82475677E-09 -5.77836631E-02
 -6.23436029E-02 -5.77836704E-02 -6.23436016E-02 -5.77836348E-02 -6.23435456E-02
 -1.45657692E-01  1.98252121E-01 -5.19544616E-07 -3.54858291E-07 -1.71553499E-01
  2.27934345E+00 -1.31074012E-06 -7.23548802E-07 -6.49647452E-01 -1.20075096E-02
 -1.20074950E-02 -6.96155037E-03  1.72006390E-08  3.67776612E-09 -9.89191614E-09
 -3.16715462E-02 -1.16774663E+00 -3.16715857E-02 -1.16774762E+00 -3.16712918E-02
 -1.16774502E+00 -1.27156060E-07  1.55134280E-07  4.12867729E-01 -5.16946752E-02
 -1.70080302E-07  2.61564823E-06  1.27601284E+00 -1.59768041E-01 -7.48612097E-07
  1.38649645E-02 -1.38649629E-02  2.81355594E-09  2.00773686E-03  3.65459601E-03
 -4.57583981E-04 -6.99651128E-02 -1.03875495E+00  1.14981357E-01  1.70709694E+00
 -4.50163023E-02 -6.68345544E-01  1.25110325E-07 -1.46318745E-07 -5.16946027E-02
 -4.12867690E-01  1.35959642E-07 -2.89116928E-06 -1.59767955E-01 -1.27601378E+00
  7.91080324E-07 -1.73875070E-03  1.73875422E-03  1.75569167E-08  1.60098506E-02
 -4.57590626E-04 -3.65459603E-03 -9.23745373E-02 -1.37146195E+00 -1.44043015E-02
 -2.13854771E-01  1.06778711E-01  1.58532090E+00 -8.56502059E-08  1.50118069E-07
 -5.37978389E-01 -5.20324553E-01  1.90394560E-06  1.36044361E-06  1.04910471E+00
  1.01467921E+00 -2.62683407E-06  5.27455921E-02 -5.27455793E-02  3.63853999E-08
 -5.88837921E-02  4.24668933E-02  4.10733774E-02  1.13195478E-01  5.44206032E-02
  3.35396132E-01  1.61246034E-01 -4.48592290E-01 -2.15668198E-01  3.43667457E-08
 -2.30314459E-08  5.20324801E-01 -5.37978333E-01 -1.10087142E-06 -2.97811603E-07
 -1.01467883E+00  1.04910582E+00  1.33410963E-06 -5.09948764E-02  5.09949411E-02
 -7.57359816E-09 -6.09053307E-02 -4.10733749E-02  4.24669512E-02  4.52636117E-01
  2.17612320E-01 -3.24348094E-01 -1.55935384E-01 -1.28287452E-01 -6.16769506E-02
  2.91769620E-02 -2.10057352E-01 -1.68086533E-06 -4.82175196E-07 -1.02568098E+00
 -1.00656812E-01  3.22303410E-06  7.63940822E-07  1.19024300E+00 -7.96269716E-03
 -7.96301185E-03 -2.54249961E-02 -5.30812242E-08  1.41221892E-07  2.46273165E-08
  5.93859929E-02  1.29546569E-01  5.93872800E-02  1.29547218E-01  5.93856115E-02
  1.29546423E-01 -9.99959092E-02 -5.71256150E-01 -7.61096377E-07 -3.26119668E-06
 -1.60988889E-01  1.83582117E+00  8.89138720E-07  5.51589018E-06 -4.47958270E-01
 -1.63092881E-01 -1.63092677E-01  1.38288133E-01  6.87433561E-07 -2.66838999E-07
 -3.73266737E-07 -7.04996506E-01 -1.11457903E-01 -7.04995611E-01 -1.11460785E-01
 -7.04990703E-01 -1.11470299E-01  8.15801895E-08  2.92937310E-06 -8.37842005E-01
  1.03286575E-01 -1.48649542E-07 -6.80448503E-06  1.21747525E+00 -1.50086590E-01
  1.37015521E-06 -1.38248680E-01  1.38249149E-01 -8.95410755E-09 -1.97109543E-02
 -1.16275532E-01  1.43341132E-02  5.04073564E-01 -9.77803231E-01 -8.30682685E-01
  1.61136649E+00  3.26609793E-01 -6.33558035E-01 -4.16897822E-07 -4.66753982E-06
  1.03286670E-01  8.37842369E-01 -4.28947567E-07  1.26036318E-05 -1.50086703E-01
 -1.21747559E+00 -2.77952644E-06  1.70694093E-02 -1.70710175E-02  5.04103502E-07
 -1.59636069E-01  1.43340889E-02  1.16275679E-01  6.68160550E-01 -1.29610975E+00
  1.02456067E-01 -1.98752309E-01 -7.70624493E-01  1.49485605E+00 -1.47366144E-03
 -1.90189679E+00 -1.12938493E-06 -9.93896162E-07  3.09710834E-01  4.22385722E+00
  1.49570331E-06  1.74364684E-06 -8.43008371E-01 -1.06402451E-01 -1.06401879E-01
 -8.79818877E-02  2.15706982E-07 -2.62527916E-07 -1.41327040E-07  2.64468985E-01
 -1.27507155E+00  2.64467771E-01 -1.27506926E+00  2.64470622E-01 -1.27507528E+00
  1.56419871E-09  5.42570081E-08 -1.82410652E-03  8.10217230E-03 -1.16616593E-08
 -1.18265121E-07 -2.98319987E-03  1.32505749E-02  3.48490787E-08  1.18115006E-01
 -1.18114396E-01 -6.18646203E-07  6.06346653E-01 -1.72044823E-01  7.64178240E-01
  1.31016423E-02  1.11665121E-04 -3.01335607E-03 -2.56504510E-05 -1.00882035E-02
 -8.59449958E-05 -1.05371014E-08 -1.38721813E-07  8.10217125E-03  1.82409053E-03
 -1.67844973E-08  3.86459217E-07  1.32505812E-02  2.98319064E-03 -1.21497588E-07
 -5.25111253E-01  5.25111018E-01  2.57489646E-07  1.36387077E-01  7.64178670E-01
  1.72044848E-01 -4.08480584E-03 -3.48712817E-05  1.33885626E-02  1.14017665E-04
 -9.30410254E-03 -7.93536248E-05 -4.88864721E-02 -3.43931974E-01  8.80836242E-08
  6.23763284E-08 -1.90959365E-02  1.20473742E+00 -4.00880179E-07  1.25690001E-07
 -3.40254097E-01  4.94531163E-01  4.94531200E-01 -1.03244614E+00 -5.19948724E-07
  4.90614337E-07 -3.02337390E-07 -3.44621769E-01 -2.22876023E-01 -3.44622069E-01
 -2.22876112E-01 -3.44621614E-01 -2.22876380E-01 -2.96008339E-08  1.52609778E-07
  1.27806740E-01 -5.88009642E-02 -1.14269994E-07  1.50338077E-07  3.76395519E-01
 -1.73171200E-01 -8.89723651E-08 -6.96790746E-01  6.96790977E-01 -2.18279052E-07
 -3.70360210E-01 -6.38169646E-01  2.93607387E-01 -6.30792120E-01  8.15916383E-02
  7.02044678E-01 -9.08082312E-02 -7.12534116E-02  9.21674556E-03 -5.57080756E-08
  1.04710087E-07  5.88010648E-02  1.27807139E-01 -1.60693985E-07  8.23313984E-07
  1.73170709E-01  3.76395904E-01 -2.74295257E-07 -3.20741524E-01  3.20741859E-01
 -3.87404726E-07  8.04584530E-01 -2.93607036E-01 -6.38170209E-01  4.46463777E-01
 -5.77491923E-02  3.23049557E-01 -4.17862235E-02 -7.69514507E-01  9.95349802E-02
 -4.72715361E-01  3.01997197E+00 -1.72215456E-08 -7.82375374E-08  7.28460422E-02
  1.97636494E+00 -1.13218867E-07  1.70560347E-07 -2.76186919E-01 -1.84485026E+00
 -1.84485041E+00 -1.84647379E+00 -5.10307404E-08  7.51515647E-08  3.79101054E-08
  1.44569247E-01 -4.90217898E-01  1.44569062E-01 -4.90217776E-01  1.44569438E-01
 -4.90218266E-01
Beta MO coefficients                       R   N=         441
  9.92857993E-01  4.86347191E-02  1.11257339E-10  4.83856177E-10 -7.48351521E-04
 -1.20546272E-02  5.80755446E-10 -1.15482589E-09  1.52557553E-03 -9.34828023E-03
 -9.34827988E-03 -9.49360553E-03  1.51233759E-10 -1.50098090E-09 -1.78326907E-10
 -2.45480008E-04  2.55822647E-03 -2.45479055E-04  2.55822606E-03 -2.45480297E-04
  2.55822837E-03 -1.94152491E-01  3.79228175E-01  4.20682768E-09  1.03262537E-07
 -1.11091742E-01  3.63094125E-01 -1.52100185E-08  2.16802372E-08 -4.85742878E-02
  4.78647905E-03  4.78650020E-03 -1.09739200E-02 -1.31297462E-09  6.28856403E-10
 -1.20896094E-08  1.54702185E-01  4.98156507E-02  1.54702158E-01  4.98156497E-02
  1.54702304E-01  4.98156768E-02  3.61286089E-08 -6.16317240E-08 -3.40449438E-02
  4.50660371E-01 -2.11391189E-08 -1.55626740E-07 -1.44251167E-02  1.90948195E-01
  7.53743302E-09  1.30300550E-03 -1.30300551E-03  1.05221216E-09  1.99682820E-02
  1.75922656E-03 -2.32872623E-02 -2.53408695E-01 -2.26340212E-01  2.11638178E-02
  1.89031441E-02  2.32244825E-01  2.07436996E-01 -3.52451672E-10 -1.62299316E-08
  4.50660365E-01  3.40449884E-02 -1.08483029E-07 -6.62339730E-08  1.90948278E-01
  1.44251072E-02 -4.89985153E-08 -1.72930443E-02  1.72930586E-02  1.07790860E-08
  1.50460064E-03 -2.32872493E-02 -1.75922721E-03  1.21867632E-01  1.08850073E-01
 -2.80392181E-01 -2.50441524E-01  1.58524480E-01  1.41591341E-01 -7.91928321E-02
  1.74489801E-01  4.99817240E-08  2.75608799E-08  5.59585296E-01  3.24420210E-01
  6.11772732E-08  2.87788863E-08  4.46285891E-01 -7.02753935E-03 -7.02754463E-03
 -3.45412905E-03  2.91431766E-09  1.88500098E-08  9.82475677E-09 -5.77836631E-02
 -6.23436029E-02 -5.77836704E-02 -6.23436016E-02 -5.77836348E-02 -6.23435456E-02
 -1.45657692E-01  1.98252121E-01 -5.19544616E-07 -3.54858291E-07 -1.71553499E-01
  2.27934345E+00 -1.31074012E-06 -7.23548802E-07 -6.49647452E-01 -1.20075096E-02
 -1.20074950E-02 -6.96155037E-03  1.72006390E-08  3.67776612E-09 -9.89191614E-09
 -3.16715462E-02 -1.16774663E+00 -3.16715857E-02 -1.16774762E+00 -3.16712918E-02
 -1.16774502E+00 -1.27156060E-07  1.55134280E-07  4.12867729E-01 -5.16946752E-02
 -1.70080302E-07  2.61564823E-06  1.27601284E+00 -1.59768041E-01 -7.48612097E-07
  1.38649645E-02 -1.38649629E-02  2.81355594E-09  2.00773686E-03  3.65459601E-03
 -4.57583981E-04 -6.99651128E-02 -1.03875495E+00  1.14981357E-01  1.70709694E+00
 -4.50163023E-02 -6.68345544E-01  1.25110325E-07 -1.46318745E-07 -5.16946027E-02
 -4.12867690E-01  1.35959642E-07 -2.89116928E-06 -1.59767955E-01 -1.27601378E+00
  7.91080324E-07 -1.73875070E-03  1.73875422E-03  1.75569167E-08  1.60098506E-02
 -4.57590626E-04 -3.65459603E-03 -9.23745373E-02 -1.37146195E+00 -1.44043015E-02
 -2.13854771E-01  1.06778711E-01  1.58532090E+00 -8.56502059E-08  1.50118069E-07
 -5.37978389E-01 -5.20324553E-01  1.90394560E-06  1.36044361E-06  1.04910471E+00
  1.01467921E+00 -2.62683407E-06  5.27455921E-02 -5.27455793E-02  3.63853999E-08
 -5.88837921E-02  4.24668933E-02  4.10733774E-02  1.13195478E-01  5.44206032E-02
  3.35396132E-01  1.61246034E-01 -4.48592290E-01 -2.15668198E-01  3.43667457E-08
 -2.30314459E-08  5.20324801E-01 -5.37978333E-01 -1.10087142E-06 -2.97811603E-07
 -1.01467883E+00  1.04910582E+00  1.33410963E-06 -5.09948764E-02  5.09949411E-02
 -7.57359816E-09 -6.09053307E-02 -4.10733749E-02  4.24669512E-02  4.52636117E-01
  2.17612320E-01 -3.24348094E-01 -1.55935384E-01 -1.28287452E-01 -6.16769506E-02
  2.91769620E-02 -2.10057352E-01 -1.68086533E-06 -4.82175196E-07 -1.02568098E+00
 -1.00656812E-01  3.22303410E-06  7.63940822E-07  1.19024300E+00 -7.96269716E-03
 -7.96301185E-03 -2.54249961E-02 -5.30812242E-08  1.41221892E-07  2.46273165E-08
  5.93859929E-02  1.29546569E-01  5.93872800E-02  1.29547218E-01  5.93856115E-02
  1.29546423E-01 -9.99959092E-02 -5.71256150E-01 -7.61096377E-07 -3.26119668E-06
 -1.60988889E-01  1.83582117E+00  8.89138720E-07  5.51589018E-06 -4.47958270E-01
 -1.63092881E-01 -1.63092677E-01  1.38288133E-01  6.87433561E-07 -2.66838999E-07
 -3.73266737E-07 -7.04996506E-01 -1.11457903E-01 -7.04995611E-01 -1.11460785E-01
 -7.04990703E-01 -1.11470299E-01  8.15801895E-08  2.92937310E-06 -8.37842005E-01
  1.03286575E-01 -1.48649542E-07 -6.80448503E-06  1.21747525E+00 -1.50086590E-01
  1.37015521E-06 -1.38248680E-01  1.38249149E-01 -8.95410755E-09 -1.97109543E-02
 -1.16275532E-01  1.43341132E-02  5.04073564E-01 -9.77803231E-01 -8.30682685E-01
  1.61136649E+00  3.26609793E-01 -6.33558035E-01 -4.16897822E-07 -4.66753982E-06
  1.03286670E-01  8.37842369E-01 -4.28947567E-07  1.26036318E-05 -1.50086703E-01
 -1.21747559E+00 -2.77952644E-06  1.70694093E-02 -1.70710175E-02  5.04103502E-07
 -1.59636069E-01  1.43340889E-02  1.16275679E-01  6.68160550E-01 -1.29610975E+00
  1.02456067E-01 -1.98752309E-01 -7.70624493E-01  1.49485605E+00 -1.47366144E-03
 -1.90189679E+00 -1.12938493E-06 -9.93896162E-07  3.09710834E-01  4.22385722E+00
  1.49570331E-06  1.74364684E-06 -8.43008371E-01 -1.06402451E-01 -1.06401879E-01
 -8.79818877E-02  2.15706982E-07 -2.62527916E-07 -1.41327040E-07  2.64468985E-01
 -1.27507155E+00  2.64467771E-01 -1.27506926E+00  2.64470622E-01 -1.27507528E+00
  1.56419871E-09  5.42570081E-08 -1.82410652E-03  8.10217230E-03 -1.16616593E-08
 -1.18265121E-07 -2.98319987E-03  1.32505749E-02  3.48490787E-08  1.18115006E-01
 -1.18114396E-01 -6.18646203E-07  6.06346653E-01 -1.72044823E-01  7.64178240E-01
  1.31016423E-02  1.11665121E-04 -3.01335607E-03 -2.56504510E-05 -1.00882035E-02
 -8.59449958E-05 -1.05371014E-08 -1.38721813E-07  8.10217125E-03  1.82409053E-03
 -1.67844973E-08  3.86459217E-07  1.32505812E-02  2.98319064E-03 -1.21497588E-07
 -5.25111253E-01  5.25111018E-01  2.57489646E-07  1.36387077E-01  7.64178670E-01
  1.72044848E-01 -4.08480584E-03 -3.48712817E-05  1.33885626E-02  1.14017665E-04
 -9.30410254E-03 -7.93536248E-05 -4.88864721E-02 -3.43931974E-01  8.80836242E-08
  6.23763284E-08 -1.90959365E-02  1.20473742E+00 -4.00880179E-07  1.25690001E-07
 -3.40254097E-01  4.94531163E-01  4.94531200E-01 -1.03244614E+00 -5.19948724E-07
  4.90614337E-07 -3.02337390E-07 -3.44621769E-01 -2.22876023E-01 -3.44622069E-01
 -2.22876112E-01 -3.44621614E-01 -2.22876380E-01 -2.96008339E-08  1.52609778E-07
  1.27806740E-01 -5.88009642E-02 -1.14269994E-07  1.50338077E-07  3.76395519E-01
 -1.73171200E-01 -8.89723651E-08 -6.96790746E-01  6.96790977E-01 -2.18279052E-07
 -3.70360210E-01 -6.38169646E-01  2.93607387E-01 -6.30792120E-01  8.15916383E-02
  7.02044678E-01 -9.08082312E-02 -7.12534116E-02  9.21674556E-03 -5.57080756E-08
  1.04710087E-07  5.88010648E-02  1.27807139E-01 -1.60693985E-07  8.23313984E-07
  1.73170709E-01  3.76395904E-01 -2.74295257E-07 -3.20741524E-01  3.20741859E-01
 -3.87404726E-07  8.04584530E-01 -2.93607036E-01 -6.38170209E-01  4.46463777E-01
 -5.77491923E-02  3.23049557E-01 -4.17862235E-02 -7.69514507E-01  9.95349802E-02
 -4.72715361E-01  3.01997197E+00 -1.72215456E-08 -7.82375374E-08  7.28460422E-02
  1.97636494E+00 -1.13218867E-07  1.70560347E-07 -2.76186919E-01 -1.84485026E+00
 -1.84485041E+00 -1.84647379E+00 -5.10307404E-08  7.51515647E-08  3.79101054E-08
  1.44569247E-01 -4.90217898E-01  1.44569062E-01 -4.90217776E-01  1.44569438E-01
 -4.90218266E-01
Total SCF Density                          R   N=         231
  2.05319587E+00 -6.44997920E-02  3.22805380E-01 -8.14846586E-09  1.49094154E-09
  4.08507646E-01 -8.77971460E-09  2.65212369E-08  3.97903675E-08  4.08507662E-01
 -2.66368109E-03  1.33108981E-02 -6.93044590E-08 -3.39610245E-08  3.37819574E-01
 -1.90620079E-01  3.30826516E-01 -2.98340978E-08 -6.08617964E-08  1.00885304E-01
  3.69213788E-01  1.03762093E-09 -5.22490049E-09  1.73087846E-01  6.93153790E-09
 -3.20697843E-09 -1.20168529E-08  7.33386577E-02  7.96435151E-10 -2.65236346E-09
  7.01686100E-09  1.73087774E-01  8.62675640E-11 -3.62359267E-08 -1.23344681E-09
  7.33385938E-02 -1.34516460E-02  4.11792512E-02 -2.27788102E-08  5.72703673E-09
  2.60525144E-01  1.09473305E-01  9.85213654E-09  1.21987840E-08  2.03894674E-01
 -1.98651123E-02  1.49479992E-03 -1.56753011E-02 -3.05631530E-06 -4.98198898E-03
  1.42139100E-03 -6.64174666E-03 -1.29491219E-06 -3.62981258E-03  8.71482168E-04
 -1.98651196E-02  1.49481427E-03  1.56753134E-02  3.05885157E-06 -4.98200403E-03
  1.42140087E-03  6.64175095E-03  1.29537471E-06 -3.62982042E-03 -3.31506911E-04
  8.71483623E-04 -1.43168342E-02 -9.84938728E-03  9.37668208E-09 -6.88447195E-10
  5.19553060E-04 -8.86083728E-03  4.19762518E-09  1.59501526E-10 -5.04394789E-04
  9.67185512E-05  9.67188387E-05  4.33041940E-04  2.02114071E-09 -2.98280323E-09
 -3.51032974E-06  1.81002750E-02  7.51633189E-10 -6.42615795E-09 -1.48779373E-06
  7.66922286E-03  1.58220669E-09 -7.24376639E-10  6.95254612E-10  9.03371979E-11
  8.01992218E-04 -4.57396343E-09  4.15914762E-09 -2.11090661E-02 -8.76166861E-10
  1.53888790E-08  9.14542849E-09 -8.94407440E-03  1.37365442E-10  1.06554226E-08
  8.09999333E-04 -8.10000196E-04 -5.48741332E-10  1.81443703E-07  1.09078172E-03
  1.88086596E-09 -4.54489440E-09 -8.80633956E-10 -2.11090783E-02  9.55040487E-09
  1.89359934E-09  1.39882501E-10 -8.94407549E-03  5.37994124E-09  1.57744996E-07
 -1.58157731E-07  1.47858762E-10 -9.35307110E-04 -1.54662959E-11  1.09078293E-03
 -5.59830492E-02  1.07228344E-01  1.27096391E-01 -2.20104518E-01 -6.67068070E-02
  9.36027019E-02  5.38517207E-02 -9.32599535E-02 -4.08178952E-02 -2.98368643E-03
  6.76694504E-03 -3.19112350E-03 -9.75354891E-03 -6.56753136E-03  1.13735995E-02
  2.09339977E-01 -9.32660411E-03  2.71535354E-02  1.13520304E-01 -1.96593520E-01
 -4.59586213E-02  1.58883946E-02  4.80994306E-02 -8.32981616E-02 -3.26547984E-02
 -3.48736813E-03  5.22172413E-03 -9.26574797E-04 -8.71169890E-03 -5.86600612E-03
  1.01587019E-02  1.60258123E-01  1.35019472E-01 -5.59830161E-02  1.07228302E-01
 -2.54164329E-01 -1.64787791E-05 -6.67067294E-02  9.36026478E-02 -1.07691398E-01
 -6.98387592E-06 -4.08178523E-02  1.16444459E-02 -7.86119922E-03 -3.19113099E-03
  1.45307937E-06  1.31335882E-02  8.48047617E-07 -2.78630568E-02 -5.16075012E-02
  2.09339953E-01 -9.32658666E-03  2.71535162E-02 -2.27015253E-01 -1.47531202E-05
 -4.59585527E-02  1.58883655E-02 -9.61881209E-02 -6.24881068E-06 -3.26547588E-02
  9.57822975E-03 -7.84388405E-03 -9.26582001E-04  1.29735784E-06  1.17306971E-02
  7.60319240E-07 -5.16075077E-02 -5.42152278E-02  1.60258179E-01  1.35019583E-01
 -5.59830632E-02  1.07228378E-01  1.27067874E-01  2.20121037E-01 -6.67068461E-02
  9.36026415E-02  5.38396273E-02  9.32669305E-02 -4.08178904E-02 -2.98588406E-03
  6.76914560E-03 -3.19112439E-03  9.75209181E-03 -6.56605654E-03 -1.13744578E-02
 -2.78630706E-02 -5.16075075E-02 -2.78630435E-02 -5.16075345E-02  2.09340014E-01
 -9.32658368E-03  2.71535108E-02  1.13494846E-01  1.96608227E-01 -4.59586204E-02
  1.58882927E-02  4.80886344E-02  8.33043808E-02 -3.26547720E-02 -3.48933254E-03
  5.22368909E-03 -9.26573985E-04  8.71039740E-03 -5.86468949E-03 -1.01594640E-02
 -5.16075035E-02 -5.42152007E-02 -5.16075239E-02 -5.42152688E-02  1.60258106E-01
  1.35019440E-01
Spin SCF Density                           R   N=         231
  6.27150466E-03 -1.38183415E-02  3.04466907E-02 -3.95819428E-09  8.72130107E-09
  2.49800181E-15 -2.18262413E-09  4.80909245E-09  1.37754029E-15  7.49400542E-16
 -4.43151444E-02  9.76419269E-02  2.79690378E-08  1.54226631E-08  3.13135703E-01
 -2.56917552E-02  5.66080179E-02  1.62150814E-08  8.94130644E-09  1.81540779E-01
  1.05248473E-01 -4.84480152E-09  1.06748102E-08  3.05311332E-15  1.68609948E-15
  3.42339025E-08  1.98471438E-08  3.74006381E-15 -2.27908151E-09  5.02162214E-09
  1.43841835E-15  7.91033905E-16  1.61042416E-08  9.33645234E-09  1.76061379E-15
  8.25728375E-16 -3.53426436E-02  7.78723363E-02  2.23061382E-08  1.23000318E-08
  2.49735022E-01  1.44784162E-01  2.73025539E-08  1.28436109E-08  1.99171097E-01
  5.56530744E-04 -1.22623394E-03 -3.51248532E-10 -1.93685168E-10 -3.93250769E-03
 -2.27987579E-03 -4.29925695E-10 -2.02244756E-10 -3.13629166E-03  4.93863093E-05
  5.56531162E-04 -1.22623486E-03 -3.51248796E-10 -1.93685314E-10 -3.93251064E-03
 -2.27987750E-03 -4.29926018E-10 -2.02244908E-10 -3.13629402E-03  4.93863464E-05
  4.93863835E-05  2.73542262E-04 -6.02710291E-04 -1.72643325E-10 -9.51988359E-11
 -1.93287983E-03 -1.12058927E-03 -2.11314197E-10 -9.94059872E-11 -1.54152906E-03
  2.42740278E-05  2.42740461E-05  1.19310075E-05 -2.30793069E-10  5.08518709E-10
  1.45662562E-16  7.97972799E-17  1.63080931E-09  9.45463547E-10  1.78290059E-16
  8.37004077E-17  1.30061885E-09 -2.04804820E-11 -2.04804974E-11 -1.00664293E-11
  8.51098705E-18 -1.49278566E-09  3.28913446E-09  9.41954847E-16  5.19522856E-16
  1.05481883E-08  6.11532414E-09  1.15359111E-15  5.42482289E-16  8.41249342E-09
 -1.32469186E-10 -1.32469285E-10 -6.51103664E-11  5.49349174E-17  3.55293052E-16
 -7.78050313E-10  1.71431985E-09  4.91058281E-16  2.70616862E-16  5.49778943E-09
  3.18734965E-09  6.01051829E-16  2.82759927E-16  4.38465033E-09 -6.90438648E-11
 -6.90439167E-11 -3.39359778E-11  2.86229374E-17  1.85196761E-16  9.64939934E-17
  4.57605193E-03 -1.00826599E-02 -2.88812710E-09 -1.59256860E-09 -3.23348882E-02
 -1.87461881E-02 -3.53504694E-09 -1.66294947E-09 -2.57880336E-02  4.06076966E-04
  4.06077271E-04  1.99592229E-04 -1.68399950E-10 -1.08922262E-09 -5.67710435E-10
  3.33895172E-03  4.93716648E-03 -1.08783229E-02 -3.11604075E-09 -1.71824455E-09
 -3.48865635E-02 -2.02255247E-02 -3.81401163E-09 -1.79417946E-09 -2.78230704E-02
  4.38122123E-04  4.38122452E-04  2.15342850E-04 -1.81689063E-10 -1.17517753E-09
 -6.12510735E-10  3.60244175E-03  3.88672482E-03  4.57605251E-03 -1.00826611E-02
 -2.88812746E-09 -1.59256880E-09 -3.23348923E-02 -1.87461905E-02 -3.53504739E-09
 -1.66294968E-09 -2.57880368E-02  4.06077018E-04  4.06077323E-04  1.99592255E-04
 -1.68399971E-10 -1.08922275E-09 -5.67710507E-10  3.33895214E-03  3.60244220E-03
  3.33895256E-03  4.93716637E-03 -1.08783226E-02 -3.11604069E-09 -1.71824452E-09
 -3.48865628E-02 -2.02255243E-02 -3.81401154E-09 -1.79417942E-09 -2.78230698E-02
  4.38122113E-04  4.38122443E-04  2.15342845E-04 -1.81689059E-10 -1.17517750E-09
 -6.12510722E-10  3.60244167E-03  3.88672474E-03  3.60244213E-03  3.88672466E-03
  4.57604969E-03 -1.00826549E-02 -2.88812568E-09 -1.59256781E-09 -3.23348724E-02
 -1.87461789E-02 -3.53504521E-09 -1.66294865E-09 -2.57880209E-02  4.06076767E-04
  4.06077072E-04  1.99592132E-04 -1.68399867E-10 -1.08922208E-09 -5.67710158E-10
  3.33895009E-03  3.60243998E-03  3.33895051E-03  3.60243991E-03  3.33894845E-03
  4.93716194E-03 -1.08783129E-02 -3.11603789E-09 -1.71824298E-09 -3.48865314E-02
 -2.02255062E-02 -3.81400812E-09 -1.79417781E-09 -2.78230448E-02  4.38121720E-04
  4.38122049E-04  2.15342652E-04 -1.81688896E-10 -1.17517645E-09 -6.12510172E-10
  3.60243844E-03  3.88672125E-03  3.60243889E-03  3.88672117E-03  3.60243667E-03
  3.88671768E-03
