Generated by Multiwfn
SP        UB3LYP                                              6-31G(d)
Number of atoms                            I                4
Charge                                     I                0
Multiplicity                               I                2
Number of electrons                        I                9
Number of alpha electrons                  I                5
Number of beta electrons                   I                4
Number of basis functions                  I               21
Number of independent functions            I               21
Atomic numbers                             I   N=           4
           6           1           1           1
Nuclear charges                            R   N=           4
  6.00000000E+00  1.00000000E+00  1.00000000E+00  1.00000000E+00
Current cartesian coordinates              R   N=          12
  0.00000000E+00  0.00000000E+00  1.44633968E+00 -9.64650385E-01  1.67107536E+00
  2.20005128E+00  1.92951998E+00 -1.24721924E-04  2.20005128E+00 -9.64867703E-01
 -1.67095064E+00  2.20005128E+00
Translation vectors                        R   N=           0
Number of contracted shells                I               12
Number of primitive shells                 I               27
Highest angular momentum                   I                2
Largest degree of contraction              I                6
Shell types                                I   N=          12
           0           0           1           0           1           2
           0           0           0           0           0           0
Number of primitives per shell             I   N=          12
           6           3           3           1           1           1
           3           1           3           1           3           1
Shell to atom map                          I   N=          12
           1           1           1           1           1           1
           2           2           3           3           4           4
Primitive exponents                        R   N=          27
  3.04752488E+03  4.57369518E+02  1.03948685E+02  2.92101553E+01  9.28666296E+00
  3.16392696E+00  7.86827235E+00  1.88128854E+00  5.44249258E-01  7.86827235E+00
  1.88128854E+00  5.44249258E-01  1.68714478E-01  1.68714478E-01  8.00000000E-01
  1.87311370E+01  2.82539436E+00  6.40121692E-01  1.61277759E-01  1.87311370E+01
  2.82539436E+00  6.40121692E-01  1.61277759E-01  1.87311370E+01  2.82539436E+00
  6.40121692E-01  1.61277759E-01
Contraction coefficients                   R   N=          27
  1.83473713E-03  1.40373228E-02  6.88426223E-02  2.32184443E-01  4.67941348E-01
  3.62311985E-01 -1.19332420E-01 -1.60854152E-01  1.14345644E+00  6.89990666E-02
  3.16423961E-01  7.44308291E-01  1.00000000E+00  1.00000000E+00  1.00000000E+00
  3.34946043E-02  2.34726953E-01  8.13757326E-01  1.00000000E+00  3.34946043E-02
  2.34726953E-01  8.13757326E-01  1.00000000E+00  3.34946043E-02  2.34726953E-01
  8.13757326E-01  1.00000000E+00
Coordinates of each shell                  R   N=          36
  0.00000000E+00  0.00000000E+00  1.44633968E+00  0.00000000E+00  0.00000000E+00
  1.44633968E+00  0.00000000E+00  0.00000000E+00  1.44633968E+00  0.00000000E+00
  0.00000000E+00  1.44633968E+00  0.00000000E+00  0.00000000E+00  1.44633968E+00
  0.00000000E+00  0.00000000E+00  1.44633968E+00 -9.64650385E-01  1.67107536E+00
  2.20005128E+00 -9.64650385E-01  1.67107536E+00  2.20005128E+00  1.92951998E+00
 -1.24721924E-04  2.20005128E+00  1.92951998E+00 -1.24721924E-04  2.20005128E+00
 -9.64867703E-01 -1.67095064E+00  2.20005128E+00 -9.64867703E-01 -1.67095064E+00
  2.20005128E+00
Virial Ratio                               R      2.010194185751495E+00
Total Energy                               R     -3.982376725903428E+01
Alpha Orbital Energies                     R   N=          21
 -1.01941959E+01 -6.65959714E-01 -3.92586743E-01 -3.92586616E-01 -1.12441532E-01
  1.21727167E-01  1.72875346E-01  1.72875489E-01  5.34264714E-01  5.34264816E-01
  5.56216760E-01  8.58772901E-01  8.81695279E-01  8.81695580E-01  9.74159066E-01
  1.65836143E+00  1.65836150E+00  1.86138247E+00  2.23724032E+00  2.23724074E+00
  4.07995099E+00
Beta Orbital Energies                      R   N=          21
 -1.01941959E+01 -6.65959714E-01 -3.92586743E-01 -3.92586616E-01 -1.12441532E-01
  1.21727167E-01  1.72875346E-01  1.72875489E-01  5.34264714E-01  5.34264816E-01
  5.56216760E-01  8.58772901E-01  8.81695279E-01  8.81695580E-01  9.74159066E-01
  1.65836143E+00  1.65836150E+00  1.86138247E+00  2.23724032E+00  2.23724074E+00
  4.07995099E+00
Alpha MO coefficients                      R   N=         441
  9.92857993E-01  4.86347191E-02 -1.11256711E-10  4.83856287E-10  7.48351521E-04
 -1.20546272E-02 -5.80755342E-10 -1.15482745E-09 -1.52557553E-03 -9.34828023E-03
 -9.34827988E-03 -9.49360553E-03 -1.51232905E-10 -1.50097949E-09  1.78325861E-10
 -2.45480297E-04  2.55822837E-03 -2.45479055E-04  2.55822606E-03 -2.45480008E-04
  2.55822647E-03 -1.94152491E-01  3.79228175E-01 -4.20682713E-09  1.03262537E-07
  1.11091742E-01  3.63094125E-01  1.52100148E-08  2.16802331E-08  4.85742878E-02
  4.78647905E-03  4.78650020E-03 -1.09739200E-02  1.31297491E-09  6.28855834E-10
  1.20896094E-08  1.54702304E-01  4.98156768E-02  1.54702158E-01  4.98156497E-02
  1.54702185E-01  4.98156507E-02  3.61286097E-08 -6.16317194E-08  3.40449416E-02
  4.50660371E-01  2.11391214E-08 -1.55626761E-07  1.44251157E-02  1.90948195E-01
 -7.53743632E-09  1.30300541E-03 -1.30300543E-03  1.05221334E-09 -1.99682820E-02
  1.75922645E-03  2.32872624E-02  2.32244826E-01  2.07436997E-01  2.11638164E-02
  1.89031429E-02 -2.53408694E-01 -2.26340212E-01  3.52452621E-10  1.62299293E-08
  4.50660365E-01 -3.40449861E-02 -1.08483027E-07  6.62339738E-08  1.90948278E-01
 -1.44251062E-02 -4.89985118E-08  1.72930443E-02 -1.72930586E-02 -1.07790887E-08
  1.50460055E-03  2.32872493E-02 -1.75922710E-03 -1.58524478E-01 -1.41591340E-01
  2.80392181E-01  2.50441524E-01 -1.21867633E-01 -1.08850074E-01  7.91928321E-02
 -1.74489801E-01  4.99817212E-08 -2.75608811E-08  5.59585296E-01 -3.24420210E-01
  6.11772784E-08 -2.87788963E-08  4.46285891E-01  7.02753935E-03  7.02754463E-03
  3.45412905E-03  2.91431874E-09 -1.88500088E-08  9.82475569E-09  5.77836348E-02
  6.23435456E-02  5.77836704E-02  6.23436016E-02  5.77836631E-02  6.23436029E-02
 -1.45657692E-01  1.98252121E-01  5.19544599E-07 -3.54858195E-07  1.71553499E-01
  2.27934345E+00  1.31074005E-06 -7.23548425E-07  6.49647452E-01 -1.20075096E-02
 -1.20074950E-02 -6.96155037E-03 -1.72006384E-08  3.67776722E-09  9.89191568E-09
 -3.16712918E-02 -1.16774502E+00 -3.16715857E-02 -1.16774762E+00 -3.16715462E-02
 -1.16774663E+00 -1.27156060E-07  1.55134289E-07 -4.12867730E-01 -5.16946616E-02
  1.70080301E-07  2.61564826E-06 -1.27601284E+00 -1.59767999E-01  7.48612111E-07
  1.38649645E-02 -1.38649630E-02  2.81355739E-09 -2.00773634E-03  3.65459602E-03
  4.57583861E-04 -4.50163058E-02 -6.68345596E-01  1.14981357E-01  1.70709694E+00
 -6.99651098E-02 -1.03875490E+00  1.25110284E-07 -1.46318628E-07  5.16945892E-02
 -4.12867692E-01 -1.35959581E-07 -2.89116872E-06  1.59767913E-01 -1.27601379E+00
 -7.91080163E-07 -1.73875025E-03  1.73875376E-03  1.75569239E-08 -1.60098507E-02
 -4.57590506E-04  3.65459605E-03  1.06778709E-01  1.58532088E+00 -1.44042977E-02
 -2.13854715E-01 -9.23745396E-02 -1.37146199E+00  8.56502103E-08 -1.50118046E-07
 -5.37978464E-01  5.20324475E-01  1.90394575E-06 -1.36044369E-06  1.04910485E+00
 -1.01467906E+00 -2.62683425E-06 -5.27455995E-02  5.27455867E-02 -3.63853970E-08
 -5.88837833E-02 -4.24668993E-02  4.10733713E-02  4.48592272E-01  2.15668189E-01
 -3.35396179E-01 -1.61246056E-01 -1.13195412E-01 -5.44205718E-02  3.43667341E-08
 -2.30314374E-08 -5.20324724E-01 -5.37978409E-01  1.10087112E-06 -2.97811386E-07
  1.01467868E+00  1.04910597E+00 -1.33410923E-06 -5.09948688E-02  5.09949335E-02
 -7.57359451E-09  6.09053392E-02 -4.10733688E-02 -4.24669571E-02 -1.28287517E-01
 -6.16769818E-02 -3.24348046E-01 -1.55935361E-01  4.52636133E-01  2.17612328E-01
 -2.91769620E-02  2.10057352E-01 -1.68086530E-06  4.82175188E-07 -1.02568098E+00
  1.00656812E-01  3.22303405E-06 -7.63940825E-07  1.19024300E+00  7.96269716E-03
  7.96301185E-03  2.54249961E-02 -5.30812275E-08 -1.41221893E-07  2.46273184E-08
 -5.93856115E-02 -1.29546423E-01 -5.93872800E-02 -1.29547218E-01 -5.93859929E-02
 -1.29546569E-01 -9.99959092E-02 -5.71256150E-01  7.61096314E-07 -3.26119705E-06
  1.60988889E-01  1.83582117E+00 -8.89138629E-07  5.51589067E-06  4.47958270E-01
 -1.63092881E-01 -1.63092677E-01  1.38288133E-01 -6.87433630E-07 -2.66838994E-07
  3.73266784E-07 -7.04990703E-01 -1.11470299E-01 -7.04995611E-01 -1.11460785E-01
 -7.04996506E-01 -1.11457903E-01  8.15801915E-08  2.92937315E-06  8.37842008E-01
  1.03286549E-01  1.48649559E-07 -6.80448516E-06 -1.21747526E+00 -1.50086553E-01
 -1.37015525E-06 -1.38248681E-01  1.38249150E-01 -8.95410239E-09  1.97109493E-02
 -1.16275532E-01 -1.43341096E-02  3.26609816E-01 -6.33558082E-01 -8.30682688E-01
  1.61136650E+00  5.04073543E-01 -9.77803191E-01 -4.16897863E-07 -4.66753963E-06
 -1.03286645E-01  8.37842372E-01  4.28947687E-07  1.26036316E-05  1.50086666E-01
 -1.21747560E+00  2.77952645E-06  1.70694050E-02 -1.70710132E-02  5.04103586E-07
  1.59636070E-01  1.43340853E-02 -1.16275680E-01 -7.70624483E-01  1.49485603E+00
  1.02456041E-01 -1.98752259E-01  6.68160565E-01 -1.29610978E+00 -1.47366144E-03
 -1.90189679E+00  1.12938490E-06 -9.93896013E-07 -3.09710834E-01  4.22385722E+00
 -1.49570326E-06  1.74364657E-06  8.43008371E-01 -1.06402451E-01 -1.06401879E-01
 -8.79818877E-02 -2.15706958E-07 -2.62527913E-07  1.41327018E-07  2.64470622E-01
 -1.27507528E+00  2.64467771E-01 -1.27506926E+00  2.64468985E-01 -1.27507155E+00
 -1.56419152E-09 -5.42570015E-08 -1.82410407E-03 -8.10217286E-03 -1.16616652E-08
  1.18265015E-07 -2.98319585E-03 -1.32505758E-02  3.48490437E-08 -1.18114847E-01
  1.18114237E-01  6.18646157E-07  6.06346694E-01  1.72044591E-01  7.64178293E-01
  1.00882063E-02  8.59450198E-05  3.01335202E-03  2.56504165E-05 -1.31016411E-02
 -1.11665111E-04 -1.05370991E-08 -1.38721856E-07 -8.10217180E-03  1.82408808E-03
  1.67844930E-08  3.86459266E-07 -1.32505822E-02  2.98318663E-03  1.21497593E-07
 -5.25111288E-01  5.25111054E-01  2.57489878E-07 -1.36386893E-01  7.64178722E-01
 -1.72044617E-01 -9.30409948E-03 -7.93535988E-05  1.33885635E-02  1.14017672E-04
 -4.08480981E-03 -3.48713156E-05 -4.88864721E-02 -3.43931974E-01 -8.80836211E-08
  6.23763360E-08  1.90959365E-02  1.20473742E+00  4.00880167E-07  1.25689977E-07
  3.40254097E-01  4.94531163E-01  4.94531200E-01 -1.03244614E+00  5.19948725E-07
  4.90614363E-07  3.02337400E-07 -3.44621614E-01 -2.22876380E-01 -3.44622069E-01
 -2.22876112E-01 -3.44621769E-01 -2.22876023E-01 -2.96008308E-08  1.52609735E-07
 -1.27806740E-01 -5.88009643E-02  1.14269996E-07  1.50338117E-07 -3.76395519E-01
 -1.73171200E-01  8.89723698E-08 -6.96790746E-01  6.96790977E-01 -2.18279037E-07
  3.70360212E-01 -6.38169645E-01 -2.93607387E-01 -7.12534105E-02  9.21674542E-03
  7.02044677E-01 -9.08082311E-02 -6.30792120E-01  8.15916384E-02  5.57080744E-08
 -1.04710073E-07  5.88010650E-02 -1.27807139E-01 -1.60693990E-07 -8.23314005E-07
  1.73170710E-01 -3.76395904E-01 -2.74295255E-07  3.20741525E-01 -3.20741860E-01
  3.87404717E-07  8.04584529E-01  2.93607037E-01 -6.38170208E-01  7.69514507E-01
 -9.95349802E-02 -3.23049558E-01  4.17862237E-02 -4.46463776E-01  5.77491922E-02
 -4.72715361E-01  3.01997197E+00  1.72215423E-08 -7.82375361E-08 -7.28460422E-02
  1.97636494E+00  1.13218868E-07  1.70560341E-07  2.76186919E-01 -1.84485026E+00
 -1.84485041E+00 -1.84647379E+00  5.10307487E-08  7.51515656E-08 -3.79101001E-08
  1.44569438E-01 -4.90218266E-01  1.44569062E-01 -4.90217776E-01  1.44569247E-01
 -4.90217898E-01
Beta MO coefficients                       R   N=         441
  9.92857993E-01  4.86347191E-02 -1.11256711E-10  4.83856287E-10  7.48351521E-04
 -1.20546272E-02 -5.80755342E-10 -1.15482745E-09 -1.52557553E-03 -9.34828023E-03
 -9.34827988E-03 -9.49360553E-03 -1.51232905E-10 -1.50097949E-09  1.78325861E-10
 -2.45480297E-04  2.55822837E-03 -2.45479055E-04  2.55822606E-03 -2.45480008E-04
  2.55822647E-03 -1.94152491E-01  3.79228175E-01 -4.20682713E-09  1.03262537E-07
  1.11091742E-01  3.63094125E-01  1.52100148E-08  2.16802331E-08  4.85742878E-02
  4.78647905E-03  4.78650020E-03 -1.09739200E-02  1.31297491E-09  6.28855834E-10
  1.20896094E-08  1.54702304E-01  4.98156768E-02  1.54702158E-01  4.98156497E-02
  1.54702185E-01  4.98156507E-02  3.61286097E-08 -6.16317194E-08  3.40449416E-02
  4.50660371E-01  2.11391214E-08 -1.55626761E-07  1.44251157E-02  1.90948195E-01
 -7.53743632E-09  1.30300541E-03 -1.30300543E-03  1.05221334E-09 -1.99682820E-02
  1.75922645E-03  2.32872624E-02  2.32244826E-01  2.07436997E-01  2.11638164E-02
  1.89031429E-02 -2.53408694E-01 -2.26340212E-01  3.52452621E-10  1.62299293E-08
  4.50660365E-01 -3.40449861E-02 -1.08483027E-07  6.62339738E-08  1.90948278E-01
 -1.44251062E-02 -4.89985118E-08  1.72930443E-02 -1.72930586E-02 -1.07790887E-08
  1.50460055E-03  2.32872493E-02 -1.75922710E-03 -1.58524478E-01 -1.41591340E-01
  2.80392181E-01  2.50441524E-01 -1.21867633E-01 -1.08850074E-01  7.91928321E-02
 -1.74489801E-01  4.99817212E-08 -2.75608811E-08  5.59585296E-01 -3.24420210E-01
  6.11772784E-08 -2.87788963E-08  4.46285891E-01  7.02753935E-03  7.02754463E-03
  3.45412905E-03  2.91431874E-09 -1.88500088E-08  9.82475569E-09  5.77836348E-02
  6.23435456E-02  5.77836704E-02  6.23436016E-02  5.77836631E-02  6.23436029E-02
 -1.45657692E-01  1.98252121E-01  5.19544599E-07 -3.54858195E-07  1.71553499E-01
  2.27934345E+00  1.31074005E-06 -7.23548425E-07  6.49647452E-01 -1.20075096E-02
 -1.20074950E-02 -6.96155037E-03 -1.72006384E-08  3.67776722E-09  9.89191568E-09
 -3.16712918E-02 -1.16774502E+00 -3.16715857E-02 -1.16774762E+00 -3.16715462E-02
 -1.16774663E+00 -1.27156060E-07  1.55134289E-07 -4.12867730E-01 -5.16946616E-02
  1.70080301E-07  2.61564826E-06 -1.27601284E+00 -1.59767999E-01  7.48612111E-07
  1.38649645E-02 -1.38649630E-02  2.81355739E-09 -2.00773634E-03  3.65459602E-03
  4.57583861E-04 -4.50163058E-02 -6.68345596E-01  1.14981357E-01  1.70709694E+00
 -6.99651098E-02 -1.03875490E+00  1.25110284E-07 -1.46318628E-07  5.16945892E-02
 -4.12867692E-01 -1.35959581E-07 -2.89116872E-06  1.59767913E-01 -1.27601379E+00
 -7.91080163E-07 -1.73875025E-03  1.73875376E-03  1.75569239E-08 -1.60098507E-02
 -4.57590506E-04  3.65459605E-03  1.06778709E-01  1.58532088E+00 -1.44042977E-02
 -2.13854715E-01 -9.23745396E-02 -1.37146199E+00  8.56502103E-08 -1.50118046E-07
 -5.37978464E-01  5.20324475E-01  1.90394575E-06 -1.36044369E-06  1.04910485E+00
 -1.01467906E+00 -2.62683425E-06 -5.27455995E-02  5.27455867E-02 -3.63853970E-08
 -5.88837833E-02 -4.24668993E-02  4.10733713E-02  4.48592272E-01  2.15668189E-01
 -3.35396179E-01 -1.61246056E-01 -1.13195412E-01 -5.44205718E-02  3.43667341E-08
 -2.30314374E-08 -5.20324724E-01 -5.37978409E-01  1.10087112E-06 -2.97811386E-07
  1.01467868E+00  1.04910597E+00 -1.33410923E-06 -5.09948688E-02  5.09949335E-02
 -7.57359451E-09  6.09053392E-02 -4.10733688E-02 -4.24669571E-02 -1.28287517E-01
 -6.16769818E-02 -3.24348046E-01 -1.55935361E-01  4.52636133E-01  2.17612328E-01
 -2.91769620E-02  2.10057352E-01 -1.68086530E-06  4.82175188E-07 -1.02568098E+00
  1.00656812E-01  3.22303405E-06 -7.63940825E-07  1.19024300E+00  7.96269716E-03
  7.96301185E-03  2.54249961E-02 -5.30812275E-08 -1.41221893E-07  2.46273184E-08
 -5.93856115E-02 -1.29546423E-01 -5.93872800E-02 -1.29547218E-01 -5.93859929E-02
 -1.29546569E-01 -9.99959092E-02 -5.71256150E-01  7.61096314E-07 -3.26119705E-06
  1.60988889E-01  1.83582117E+00 -8.89138629E-07  5.51589067E-06  4.47958270E-01
 -1.63092881E-01 -1.63092677E-01  1.38288133E-01 -6.87433630E-07 -2.66838994E-07
  3.73266784E-07 -7.04990703E-01 -1.11470299E-01 -7.04995611E-01 -1.11460785E-01
 -7.04996506E-01 -1.11457903E-01  8.15801915E-08  2.92937315E-06  8.37842008E-01
  1.03286549E-01  1.48649559E-07 -6.80448516E-06 -1.21747526E+00 -1.50086553E-01
 -1.37015525E-06 -1.38248681E-01  1.38249150E-01 -8.95410239E-09  1.97109493E-02
 -1.16275532E-01 -1.43341096E-02  3.26609816E-01 -6.33558082E-01 -8.30682688E-01
  1.61136650E+00  5.04073543E-01 -9.77803191E-01 -4.16897863E-07 -4.66753963E-06
 -1.03286645E-01  8.37842372E-01  4.28947687E-07  1.26036316E-05  1.50086666E-01
 -1.21747560E+00  2.77952645E-06  1.70694050E-02 -1.70710132E-02  5.04103586E-07
  1.59636070E-01  1.43340853E-02 -1.16275680E-01 -7.70624483E-01  1.49485603E+00
  1.02456041E-01 -1.98752259E-01  6.68160565E-01 -1.29610978E+00 -1.47366144E-03
 -1.90189679E+00  1.12938490E-06 -9.93896013E-07 -3.09710834E-01  4.22385722E+00
 -1.49570326E-06  1.74364657E-06  8.43008371E-01 -1.06402451E-01 -1.06401879E-01
 -8.79818877E-02 -2.15706958E-07 -2.62527913E-07  1.41327018E-07  2.64470622E-01
 -1.27507528E+00  2.64467771E-01 -1.27506926E+00  2.64468985E-01 -1.27507155E+00
 -1.56419152E-09 -5.42570015E-08 -1.82410407E-03 -8.10217286E-03 -1.16616652E-08
  1.18265015E-07 -2.98319585E-03 -1.32505758E-02  3.48490437E-08 -1.18114847E-01
  1.18114237E-01  6.18646157E-07  6.06346694E-01  1.72044591E-01  7.64178293E-01
  1.00882063E-02  8.59450198E-05  3.01335202E-03  2.56504165E-05 -1.31016411E-02
 -1.11665111E-04 -1.05370991E-08 -1.38721856E-07 -8.10217180E-03  1.82408808E-03
  1.67844930E-08  3.86459266E-07 -1.32505822E-02  2.98318663E-03  1.21497593E-07
 -5.25111288E-01  5.25111054E-01  2.57489878E-07 -1.36386893E-01  7.64178722E-01
 -1.72044617E-01 -9.30409948E-03 -7.93535988E-05  1.33885635E-02  1.14017672E-04
 -4.08480981E-03 -3.48713156E-05 -4.88864721E-02 -3.43931974E-01 -8.80836211E-08
  6.23763360E-08  1.90959365E-02  1.20473742E+00  4.00880167E-07  1.25689977E-07
  3.40254097E-01  4.94531163E-01  4.94531200E-01 -1.03244614E+00  5.19948725E-07
  4.90614363E-07  3.02337400E-07 -3.44621614E-01 -2.22876380E-01 -3.44622069E-01
 -2.22876112E-01 -3.44621769E-01 -2.22876023E-01 -2.96008308E-08  1.52609735E-07
 -1.27806740E-01 -5.88009643E-02  1.14269996E-07  1.50338117E-07 -3.76395519E-01
 -1.73171200E-01  8.89723698E-08 -6.96790746E-01  6.96790977E-01 -2.18279037E-07
  3.70360212E-01 -6.38169645E-01 -2.93607387E-01 -7.12534105E-02  9.21674542E-03
  7.02044677E-01 -9.08082311E-02 -6.30792120E-01  8.15916384E-02  5.57080744E-08
 -1.04710073E-07  5.88010650E-02 -1.27807139E-01 -1.60693990E-07 -8.23314005E-07
  1.73170710E-01 -3.76395904E-01 -2.74295255E-07  3.20741525E-01 -3.20741860E-01
  3.87404717E-07  8.04584529E-01  2.93607037E-01 -6.38170208E-01  7.69514507E-01
 -9.95349802E-02 -3.23049558E-01  4.17862237E-02 -4.46463776E-01  5.77491922E-02
 -4.72715361E-01  3.01997197E+00  1.72215423E-08 -7.82375361E-08 -7.28460422E-02
  1.97636494E+00  1.13218868E-07  1.70560341E-07  2.76186919E-01 -1.84485026E+00
 -1.84485041E+00 -1.84647379E+00  5.10307487E-08  7.51515656E-08 -3.79101001E-08
  1.44569438E-01 -4.90218266E-01  1.44569062E-01 -4.90217776E-01  1.44569247E-01
 -4.90217898E-01
Total SCF Density                          R   N=         231
  2.05319587E+00 -6.44997920E-02  3.22805380E-01  8.14846743E-09 -1.49094206E-09
  4.08507645E-01 -8.77971382E-09  2.65212415E-08 -3.97002354E-08  4.08507662E-01
  2.66368109E-03 -1.33108981E-02 -6.93044586E-08  3.39610255E-08  3.37819574E-01
 -1.90620079E-01  3.30826516E-01  2.98340990E-08 -6.08618147E-08 -1.00885304E-01
  3.69213788E-01 -1.03761856E-09  5.22489617E-09  1.73087846E-01 -6.95449657E-09
 -3.20697555E-09  1.20168485E-08  7.33386577E-02  7.96433132E-10 -2.65236312E-09
 -6.95571232E-09  1.73087774E-01 -8.62733931E-11 -3.62359343E-08  1.23344698E-09
  7.33385937E-02  1.34516460E-02 -4.11792512E-02 -2.27788084E-08 -5.72704071E-09
  2.60525144E-01 -1.09473305E-01  9.85213976E-09 -1.21987903E-08  2.03894674E-01
 -1.98651123E-02  1.49479992E-03  1.56753011E-02 -3.05631687E-06  4.98198898E-03
  1.42139100E-03  6.64174665E-03 -1.29491198E-06  3.62981258E-03  8.71482168E-04
 -1.98651196E-02  1.49481427E-03 -1.56753134E-02  3.05884413E-06  4.98200403E-03
  1.42140087E-03 -6.64175094E-03  1.29537068E-06  3.62982042E-03 -3.31506911E-04
  8.71483623E-04 -1.43168342E-02 -9.84938728E-03 -9.37668447E-09 -6.88446003E-10
 -5.19553060E-04 -8.86083728E-03 -4.19762609E-09  1.59502118E-10  5.04394789E-04
  9.67185512E-05  9.67188387E-05  4.33041940E-04 -2.02113907E-09  2.98280315E-09
 -3.51032300E-06 -1.81002750E-02  7.51633785E-10  6.42615861E-09 -1.48778816E-06
 -7.66922286E-03  1.58220734E-09  7.24858176E-10 -6.95336793E-10 -9.03372701E-11
  8.01992218E-04 -4.57396029E-09  4.15914707E-09  2.11090661E-02 -8.68190796E-10
 -1.53888785E-08  9.14542772E-09  8.94407440E-03  1.41931337E-10 -1.06554220E-08
  8.09999332E-04 -8.10000195E-04 -5.48741464E-10 -1.81443501E-07  1.09078172E-03
 -1.88086808E-09  4.54489470E-09 -8.77143642E-10  2.11090783E-02  9.55040435E-09
 -1.89359996E-09  1.38201620E-10  8.94407552E-03  5.37994059E-09 -1.57745122E-07
  1.58157392E-07 -1.47858683E-10 -9.35307113E-04  1.58181384E-11  1.09078294E-03
 -5.59830632E-02  1.07228378E-01 -1.27067874E-01  2.20121037E-01  6.67068461E-02
  9.36026415E-02 -5.38396270E-02  9.32669306E-02  4.08178904E-02 -2.98588403E-03
  6.76914556E-03 -3.19112439E-03 -9.75209182E-03 -6.56605649E-03  1.13744578E-02
  2.09340013E-01 -9.32658368E-03  2.71535108E-02 -1.13494846E-01  1.96608227E-01
  4.59586204E-02  1.58882927E-02 -4.80886344E-02  8.33043809E-02  3.26547720E-02
 -3.48933254E-03  5.22368909E-03 -9.26573985E-04 -8.71039741E-03 -5.86468948E-03
  1.01594640E-02  1.60258106E-01  1.35019441E-01 -5.59830161E-02  1.07228302E-01
  2.54164329E-01 -1.64787511E-05  6.67067294E-02  9.36026478E-02  1.07691397E-01
 -6.98384979E-06  4.08178523E-02  1.16444459E-02 -7.86119921E-03 -3.19113099E-03
 -1.45307393E-06  1.31335882E-02 -8.48046902E-07 -2.78630430E-02 -5.16075239E-02
  2.09339953E-01 -9.32658666E-03  2.71535162E-02  2.27015253E-01 -1.47530497E-05
  4.59585527E-02  1.58883655E-02  9.61881209E-02 -6.24876807E-06  3.26547588E-02
  9.57822975E-03 -7.84388405E-03 -9.26582001E-04 -1.29735499E-06  1.17306971E-02
 -7.60316252E-07 -5.16075340E-02 -5.42152687E-02  1.60258179E-01  1.35019583E-01
 -5.59830492E-02  1.07228344E-01 -1.27096391E-01 -2.20104518E-01  6.67068070E-02
  9.36027019E-02 -5.38517205E-02 -9.32599533E-02  4.08178952E-02 -2.98368642E-03
  6.76694503E-03 -3.19112350E-03  9.75354889E-03 -6.56753135E-03 -1.13735995E-02
 -2.78630708E-02 -5.16075035E-02 -2.78630566E-02 -5.16075076E-02  2.09339977E-01
 -9.32660411E-03  2.71535354E-02 -1.13520304E-01 -1.96593521E-01  4.59586213E-02
  1.58883946E-02 -4.80994305E-02 -8.32981618E-02  3.26547984E-02 -3.48736812E-03
  5.22172413E-03 -9.26574797E-04  8.71169891E-03 -5.86600611E-03 -1.01587020E-02
 -5.16075081E-02 -5.42152011E-02 -5.16075011E-02 -5.42152278E-02  1.60258123E-01
  1.35019472E-01
Spin SCF Density                           R   N=         231
  6.27150466E-03 -1.38183415E-02  3.04466907E-02  3.95819406E-09 -8.72130059E-09
  2.49800181E-15 -2.18262423E-09  4.80909266E-09 -1.37754028E-15  7.49400542E-16
  4.43151444E-02 -9.76419269E-02  2.79690363E-08 -1.54226638E-08  3.13135703E-01
 -2.56917552E-02  5.66080179E-02 -1.62150805E-08  8.94130683E-09 -1.81540779E-01
  1.05248473E-01  4.84480194E-09 -1.06748111E-08  3.05311332E-15 -1.68609970E-15
  3.42339054E-08 -1.98471455E-08  3.74006381E-15 -2.27908230E-09  5.02162389E-09
 -1.43841877E-15  7.91033905E-16 -1.61042472E-08  9.33645558E-09 -1.76061455E-15
  8.25728375E-16  3.53426436E-02 -7.78723363E-02  2.23061370E-08 -1.23000324E-08
  2.49735022E-01 -1.44784162E-01  2.73025562E-08 -1.28436154E-08  1.99171097E-01
  5.56530744E-04 -1.22623394E-03  3.51248513E-10 -1.93685176E-10  3.93250769E-03
 -2.27987579E-03  4.29925731E-10 -2.02244826E-10  3.13629166E-03  4.93863093E-05
  5.56531162E-04 -1.22623486E-03  3.51248777E-10 -1.93685322E-10  3.93251064E-03
 -2.27987750E-03  4.29926054E-10 -2.02244978E-10  3.13629402E-03  4.93863464E-05
  4.93863835E-05  2.73542262E-04 -6.02710291E-04  1.72643315E-10 -9.51988401E-11
  1.93287983E-03 -1.12058927E-03  2.11314215E-10 -9.94060217E-11  1.54152906E-03
  2.42740278E-05  2.42740461E-05  1.19310075E-05  2.30793155E-10 -5.08518897E-10
  1.45662562E-16 -7.97972799E-17  1.63080991E-09 -9.45463898E-10  1.78290059E-16
 -8.37004077E-17  1.30061934E-09  2.04804896E-11  2.04805050E-11  1.00664330E-11
  8.51098705E-18 -1.49278558E-09  3.28913428E-09 -9.41954847E-16  5.19522851E-16
 -1.05481878E-08  6.11532381E-09 -1.15359111E-15  5.42482449E-16 -8.41249297E-09
 -1.32469179E-10 -1.32469278E-10 -6.51103630E-11 -5.49349306E-17  3.55293052E-16
  7.78050228E-10 -1.71431967E-09  4.91058200E-16 -2.70616862E-16  5.49778882E-09
 -3.18734930E-09  6.01051814E-16 -2.82759927E-16  4.38464985E-09  6.90438572E-11
  6.90439091E-11  3.39359740E-11  2.86229374E-17 -1.85196731E-16  9.64939934E-17
  4.57604969E-03 -1.00826549E-02  2.88812553E-09 -1.59256788E-09  3.23348724E-02
 -1.87461789E-02  3.53504551E-09 -1.66294924E-09  2.57880209E-02  4.06076767E-04
  4.06077072E-04  1.99592132E-04  1.68399929E-10 -1.08922202E-09  5.67710095E-10
  3.33894845E-03  4.93716194E-03 -1.08783129E-02  3.11603771E-09 -1.71824305E-09
  3.48865314E-02 -2.02255062E-02  3.81400845E-09 -1.79417843E-09  2.78230448E-02
  4.38121720E-04  4.38122049E-04  2.15342652E-04  1.81688963E-10 -1.17517638E-09
  6.12510104E-10  3.60243667E-03  3.88671768E-03  4.57605251E-03 -1.00826611E-02
  2.88812729E-09 -1.59256887E-09  3.23348923E-02 -1.87461905E-02  3.53504769E-09
 -1.66295026E-09  2.57880368E-02  4.06077018E-04  4.06077323E-04  1.99592255E-04
  1.68400034E-10 -1.08922270E-09  5.67710445E-10  3.33895051E-03  3.60243889E-03
  3.33895256E-03  4.93716637E-03 -1.08783226E-02  3.11604051E-09 -1.71824459E-09
  3.48865628E-02 -2.02255243E-02  3.81401187E-09 -1.79418005E-09  2.78230698E-02
  4.38122113E-04  4.38122443E-04  2.15342845E-04  1.81689126E-10 -1.17517744E-09
  6.12510655E-10  3.60243991E-03  3.88672117E-03  3.60244213E-03  3.88672466E-03
  4.57605193E-03 -1.00826599E-02  2.88812693E-09 -1.59256867E-09  3.23348882E-02
 -1.87461881E-02  3.53504724E-09 -1.66295005E-09  2.57880336E-02  4.06076966E-04
  4.06077271E-04  1.99592229E-04  1.68400012E-10 -1.08922256E-09  5.67710373E-10
  3.33895009E-03  3.60243844E-03  3.33895214E-03  3.60244167E-03  3.33895172E-03
  4.93716648E-03 -1.08783229E-02  3.11604058E-09 -1.71824463E-09  3.48865635E-02
 -2.02255247E-02  3.81401195E-09 -1.79418008E-09  2.78230704E-02  4.38122123E-04
  4.38122452E-04  2.15342850E-04  1.81689130E-10 -1.17517746E-09  6.12510667E-10
  3.60243998E-03  3.88672125E-03  3.60244220E-03  3.88672474E-03  3.60244175E-03
  3.88672482E-03
