test                                                                    
SP        ROB3LYP                                                     6-31G(d)            
Number of atoms                            I                4
Info1-9                                    I   N=           9
          12          11           0           0           0         110
           1          18        -502
Full Title                                 C   N=           1
test        
Route                                      C   N=           2
# rob3lyp/6-31G* nosymm 
Charge                                     I                0
Multiplicity                               I                2
Number of electrons                        I                9
Number of alpha electrons                  I                5
Number of beta electrons                   I                4
Number of basis functions                  I               21
Number of independent functions            I               21
Number of point charges in /Mol/           I                0
Number of translation vectors              I                0
Atomic numbers                             I   N=           4
           6           1           1           1
Nuclear charges                            R   N=           4
  6.00000000E+00  1.00000000E+00  1.00000000E+00  1.00000000E+00
Current cartesian coordinates              R   N=          12
  0.00000000E+00  0.00000000E+00 -1.44633968E+00  9.64867703E-01 -1.67095064E+00
 -2.20005128E+00 -1.92951998E+00 -1.24721924E-04 -2.20005128E+00  9.64650385E-01
  1.67107536E+00 -2.20005128E+00
Number of symbols in /Mol/                 I                0
Force Field                                I                0
Atom Types                                 C   N=           4
                                                
Int Atom Types                             I   N=           4
           0           0           0           0
MM charges                                 R   N=           4
  0.00000000E+00  0.00000000E+00  0.00000000E+00  0.00000000E+00
Integer atomic weights                     I   N=           4
          12           1           1           1
Real atomic weights                        R   N=           4
  1.20000000E+01  1.00782504E+00  1.00782504E+00  1.00782504E+00
Atom fragment info                         I   N=           4
           0           0           0           0
Atom residue num                           I   N=           4
           0           0           0           0
Nuclear spins                              I   N=           4
           0           1           1           1
Nuclear ZEff                               R   N=           4
 -3.60000000E+00 -1.00000000E+00 -1.00000000E+00 -1.00000000E+00
Nuclear ZNuc                               R   N=           4
  6.00000000E+00  1.00000000E+00  1.00000000E+00  1.00000000E+00
Nuclear QMom                               R   N=           4
  0.00000000E+00  0.00000000E+00  0.00000000E+00  0.00000000E+00
Nuclear GFac                               R   N=           4
  0.00000000E+00  2.79284600E+00  2.79284600E+00  2.79284600E+00
MicOpt                                     I   N=           4
          -1          -1          -1          -1
Number of residues                         I                0
Number of secondary structures             I                0
Number of contracted shells                I               10
Number of primitive shells                 I               23
Pure/Cartesian d shells                    I                1
Pure/Cartesian f shells                    I                0
Highest angular momentum                   I                2
Largest degree of contraction              I                6
Shell types                                I   N=          10
           0          -1          -1           2           0           0
           0           0           0           0
Number of primitives per shell             I   N=          10
           6           3           1           1           3           1
           3           1           3           1
Shell to atom map                          I   N=          10
           1           1           1           1           2           2
           3           3           4           4
Primitive exponents                        R   N=          23
  3.04752488E+03  4.57369518E+02  1.03948685E+02  2.92101553E+01  9.28666296E+00
  3.16392696E+00  7.86827235E+00  1.88128854E+00  5.44249258E-01  1.68714478E-01
  8.00000000E-01  1.87311370E+01  2.82539436E+00  6.40121692E-01  1.61277759E-01
  1.87311370E+01  2.82539436E+00  6.40121692E-01  1.61277759E-01  1.87311370E+01
  2.82539436E+00  6.40121692E-01  1.61277759E-01
Contraction coefficients                   R   N=          23
  1.83473713E-03  1.40373228E-02  6.88426223E-02  2.32184443E-01  4.67941348E-01
  3.62311985E-01 -1.19332420E-01 -1.60854152E-01  1.14345644E+00  1.00000000E+00
  1.00000000E+00  3.34946043E-02  2.34726953E-01  8.13757326E-01  1.00000000E+00
  3.34946043E-02  2.34726953E-01  8.13757326E-01  1.00000000E+00  3.34946043E-02
  2.34726953E-01  8.13757326E-01  1.00000000E+00
P(S=P) Contraction coefficients            R   N=          23
  0.00000000E+00  0.00000000E+00  0.00000000E+00  0.00000000E+00  0.00000000E+00
  0.00000000E+00  6.89990666E-02  3.16423961E-01  7.44308291E-01  1.00000000E+00
  0.00000000E+00  0.00000000E+00  0.00000000E+00  0.00000000E+00  0.00000000E+00
  0.00000000E+00  0.00000000E+00  0.00000000E+00  0.00000000E+00  0.00000000E+00
  0.00000000E+00  0.00000000E+00  0.00000000E+00
Coordinates of each shell                  R   N=          30
  0.00000000E+00  0.00000000E+00 -1.44633968E+00  0.00000000E+00  0.00000000E+00
 -1.44633968E+00  0.00000000E+00  0.00000000E+00 -1.44633968E+00  0.00000000E+00
  0.00000000E+00 -1.44633968E+00  9.64867703E-01 -1.67095064E+00 -2.20005128E+00
  9.64867703E-01 -1.67095064E+00 -2.20005128E+00 -1.92951998E+00 -1.24721924E-04
 -2.20005128E+00 -1.92951998E+00 -1.24721924E-04 -2.20005128E+00  9.64650385E-01
  1.67107536E+00 -2.20005128E+00  9.64650385E-01  1.67107536E+00 -2.20005128E+00
Num ILSW                                   I              100
ILSW                                       I   N=         100
           0           1           0           0           2           0
           0           0           0           0         402          -1
           5           0           0           0           0           0
           0           0           1           1           0           0
           1           1           0           0           0           0
           0           0      100000           0          -1           0
           0           0           0           0           0           0
           0           0           0           1           0           0
           0 -2000000000           1           0           0           0
           0           0           4          52           0           0
           0           0           5           0           0           0
           0           0           0           0           0           1
           0           0           0           0           0           0
           0           0           0           0           0           0
           0           0           0           0           0           0
           0           0           0           0           0           0
           0           0           0           0
Num RLSW                                   I               52
RLSW                                       R   N=          52
  8.00000000E-01  7.20000000E-01  1.00000000E+00  8.10000000E-01  2.00000000E-01
  0.00000000E+00  0.00000000E+00  1.00000000E+00  0.00000000E+00  0.00000000E+00
  0.00000000E+00  0.00000000E+00  1.00000000E+00  0.00000000E+00  0.00000000E+00
  0.00000000E+00  0.00000000E+00  1.00000000E+00  0.00000000E+00  0.00000000E+00
  0.00000000E+00  0.00000000E+00  1.00000000E+00  0.00000000E+00  0.00000000E+00
  0.00000000E+00  0.00000000E+00  1.00000000E+00  0.00000000E+00  0.00000000E+00
  0.00000000E+00  0.00000000E+00  1.00000000E+00  0.00000000E+00  0.00000000E+00
  0.00000000E+00  0.00000000E+00  0.00000000E+00  1.00000000E+00  1.00000000E+00
  0.00000000E+00  1.00000000E+00  0.00000000E+00  0.00000000E+00  0.00000000E+00
  0.00000000E+00  0.00000000E+00  0.00000000E+00  0.00000000E+00  0.00000000E+00
  0.00000000E+00  0.00000000E+00
MxBond                                     I                3
NBond                                      I   N=           4
           3           1           1           1
IBond                                      I   N=          12
           2           3           4           1           0           0
           1           0           0           1           0           0
RBond                                      R   N=          12
  1.00000000E+00  1.00000000E+00  1.00000000E+00  1.00000000E+00  0.00000000E+00
  0.00000000E+00  1.00000000E+00  0.00000000E+00  0.00000000E+00  1.00000000E+00
  0.00000000E+00  0.00000000E+00
Virial Ratio                               R      2.010194185751498E+00
SCF Energy                                 R     -3.982376725903434E+01
Total Energy                               R     -3.982376725903434E+01
S**2                                       R      7.499999999999840E-01
S**2 after annihilation                    R      7.500000000000178E-01
RMS Density                                R      4.293637313670128E-09
Job Status                                 I                1
Nuclear derivative order                   I                0
External E-field                           R   N=          35
  0.00000000E+00  0.00000000E+00  0.00000000E+00  0.00000000E+00  0.00000000E+00
  0.00000000E+00  0.00000000E+00  0.00000000E+00  0.00000000E+00  0.00000000E+00
  0.00000000E+00  0.00000000E+00  0.00000000E+00  0.00000000E+00  0.00000000E+00
  0.00000000E+00  0.00000000E+00  0.00000000E+00  0.00000000E+00  0.00000000E+00
  0.00000000E+00  0.00000000E+00  0.00000000E+00  0.00000000E+00  0.00000000E+00
  0.00000000E+00  0.00000000E+00  0.00000000E+00  0.00000000E+00  0.00000000E+00
  0.00000000E+00  0.00000000E+00  0.00000000E+00  0.00000000E+00  0.00000000E+00
IOpCl                                      I                0
IROHF                                      I                1
Alpha Orbital Energies                     R   N=          21
 -1.01941959E+01 -6.65959714E-01 -3.92586743E-01 -3.92586616E-01 -1.12441532E-01
  1.21727167E-01  1.72875346E-01  1.72875489E-01  5.34264714E-01  5.34264816E-01
  5.56216760E-01  8.58772901E-01  8.81695279E-01  8.81695580E-01  9.74159066E-01
  1.65836143E+00  1.65836150E+00  1.86138247E+00  2.23724032E+00  2.23724074E+00
  4.07995099E+00
Alpha MO coefficients                      R   N=         441
  9.92857993E-01  4.86347191E-02  1.11257339E-10  4.83856177E-10 -7.48351521E-04
 -1.20546272E-02  5.80755446E-10 -1.15482589E-09  1.52557553E-03 -9.34828023E-03
 -9.34827988E-03 -9.49360553E-03  1.51233759E-10 -1.50098090E-09 -1.78326907E-10
 -2.45480008E-04  2.55822647E-03 -2.45479055E-04  2.55822606E-03 -2.45480297E-04
  2.55822837E-03 -1.94152491E-01  3.79228175E-01  4.20682768E-09  1.03262537E-07
 -1.11091742E-01  3.63094125E-01 -1.52100185E-08  2.16802372E-08 -4.85742878E-02
  4.78647905E-03  4.78650020E-03 -1.09739200E-02 -1.31297462E-09  6.28856403E-10
 -1.20896094E-08  1.54702185E-01  4.98156507E-02  1.54702158E-01  4.98156497E-02
  1.54702304E-01  4.98156768E-02  3.61286089E-08 -6.16317240E-08 -3.40449438E-02
  4.50660371E-01 -2.11391189E-08 -1.55626740E-07 -1.44251167E-02  1.90948195E-01
  7.53743302E-09  1.30300550E-03 -1.30300551E-03  1.05221216E-09  1.99682820E-02
  1.75922656E-03 -2.32872623E-02 -2.53408695E-01 -2.26340212E-01  2.11638178E-02
  1.89031441E-02  2.32244825E-01  2.07436996E-01 -3.52451672E-10 -1.62299316E-08
  4.50660365E-01  3.40449884E-02 -1.08483029E-07 -6.62339730E-08  1.90948278E-01
  1.44251072E-02 -4.89985153E-08 -1.72930443E-02  1.72930586E-02  1.07790860E-08
  1.50460064E-03 -2.32872493E-02 -1.75922721E-03  1.21867632E-01  1.08850073E-01
 -2.80392181E-01 -2.50441524E-01  1.58524480E-01  1.41591341E-01 -7.91928321E-02
  1.74489801E-01  4.99817240E-08  2.75608799E-08  5.59585296E-01  3.24420210E-01
  6.11772732E-08  2.87788863E-08  4.46285891E-01 -7.02753935E-03 -7.02754463E-03
 -3.45412905E-03  2.91431766E-09  1.88500098E-08  9.82475677E-09 -5.77836631E-02
 -6.23436029E-02 -5.77836704E-02 -6.23436016E-02 -5.77836348E-02 -6.23435456E-02
 -1.45657692E-01  1.98252121E-01 -5.19544616E-07 -3.54858291E-07 -1.71553499E-01
  2.27934345E+00 -1.31074012E-06 -7.23548802E-07 -6.49647452E-01 -1.20075096E-02
 -1.20074950E-02 -6.96155037E-03  1.72006390E-08  3.67776612E-09 -9.89191614E-09
 -3.16715462E-02 -1.16774663E+00 -3.16715857E-02 -1.16774762E+00 -3.16712918E-02
 -1.16774502E+00 -1.27156060E-07  1.55134280E-07  4.12867729E-01 -5.16946752E-02
 -1.70080302E-07  2.61564823E-06  1.27601284E+00 -1.59768041E-01 -7.48612097E-07
  1.38649645E-02 -1.38649629E-02  2.81355594E-09  2.00773686E-03  3.65459601E-03
 -4.57583981E-04 -6.99651128E-02 -1.03875495E+00  1.14981357E-01  1.70709694E+00
 -4.50163023E-02 -6.68345544E-01  1.25110325E-07 -1.46318745E-07 -5.16946027E-02
 -4.12867690E-01  1.35959642E-07 -2.89116928E-06 -1.59767955E-01 -1.27601378E+00
  7.91080324E-07 -1.73875070E-03  1.73875422E-03  1.75569167E-08  1.60098506E-02
 -4.57590626E-04 -3.65459603E-03 -9.23745373E-02 -1.37146195E+00 -1.44043015E-02
 -2.13854771E-01  1.06778711E-01  1.58532090E+00 -8.56502059E-08  1.50118069E-07
 -5.37978389E-01 -5.20324553E-01  1.90394560E-06  1.36044361E-06  1.04910471E+00
  1.01467921E+00 -2.62683407E-06  5.27455921E-02 -5.27455793E-02  3.63853999E-08
 -5.88837921E-02  4.24668933E-02  4.10733774E-02  1.13195478E-01  5.44206032E-02
  3.35396132E-01  1.61246034E-01 -4.48592290E-01 -2.15668198E-01  3.43667457E-08
 -2.30314459E-08  5.20324801E-01 -5.37978333E-01 -1.10087142E-06 -2.97811603E-07
 -1.01467883E+00  1.04910582E+00  1.33410963E-06 -5.09948764E-02  5.09949411E-02
 -7.57359816E-09 -6.09053307E-02 -4.10733749E-02  4.24669512E-02  4.52636117E-01
  2.17612320E-01 -3.24348094E-01 -1.55935384E-01 -1.28287452E-01 -6.16769506E-02
  2.91769620E-02 -2.10057352E-01 -1.68086533E-06 -4.82175196E-07 -1.02568098E+00
 -1.00656812E-01  3.22303410E-06  7.63940822E-07  1.19024300E+00 -7.96269716E-03
 -7.96301185E-03 -2.54249961E-02 -5.30812242E-08  1.41221892E-07  2.46273165E-08
  5.93859929E-02  1.29546569E-01  5.93872800E-02  1.29547218E-01  5.93856115E-02
  1.29546423E-01 -9.99959092E-02 -5.71256150E-01 -7.61096377E-07 -3.26119668E-06
 -1.60988889E-01  1.83582117E+00  8.89138720E-07  5.51589018E-06 -4.47958270E-01
 -1.63092881E-01 -1.63092677E-01  1.38288133E-01  6.87433561E-07 -2.66838999E-07
 -3.73266737E-07 -7.04996506E-01 -1.11457903E-01 -7.04995611E-01 -1.11460785E-01
 -7.04990703E-01 -1.11470299E-01  8.15801895E-08  2.92937310E-06 -8.37842005E-01
  1.03286575E-01 -1.48649542E-07 -6.80448503E-06  1.21747525E+00 -1.50086590E-01
  1.37015521E-06 -1.38248680E-01  1.38249149E-01 -8.95410755E-09 -1.97109543E-02
 -1.16275532E-01  1.43341132E-02  5.04073564E-01 -9.77803231E-01 -8.30682685E-01
  1.61136649E+00  3.26609793E-01 -6.33558035E-01 -4.16897822E-07 -4.66753982E-06
  1.03286670E-01  8.37842369E-01 -4.28947567E-07  1.26036318E-05 -1.50086703E-01
 -1.21747559E+00 -2.77952644E-06  1.70694093E-02 -1.70710175E-02  5.04103502E-07
 -1.59636069E-01  1.43340889E-02  1.16275679E-01  6.68160550E-01 -1.29610975E+00
  1.02456067E-01 -1.98752309E-01 -7.70624493E-01  1.49485605E+00 -1.47366144E-03
 -1.90189679E+00 -1.12938493E-06 -9.93896162E-07  3.09710834E-01  4.22385722E+00
  1.49570331E-06  1.74364684E-06 -8.43008371E-01 -1.06402451E-01 -1.06401879E-01
 -8.79818877E-02  2.15706982E-07 -2.62527916E-07 -1.41327040E-07  2.64468985E-01
 -1.27507155E+00  2.64467771E-01 -1.27506926E+00  2.64470622E-01 -1.27507528E+00
  1.56419871E-09  5.42570081E-08 -1.82410652E-03  8.10217230E-03 -1.16616593E-08
 -1.18265121E-07 -2.98319987E-03  1.32505749E-02  3.48490787E-08  1.18115006E-01
 -1.18114396E-01 -6.18646203E-07  6.06346653E-01 -1.72044823E-01  7.64178240E-01
  1.31016423E-02  1.11665121E-04 -3.01335607E-03 -2.56504510E-05 -1.00882035E-02
 -8.59449958E-05 -1.05371014E-08 -1.38721813E-07  8.10217125E-03  1.82409053E-03
 -1.67844973E-08  3.86459217E-07  1.32505812E-02  2.98319064E-03 -1.21497588E-07
 -5.25111253E-01  5.25111018E-01  2.57489646E-07  1.36387077E-01  7.64178670E-01
  1.72044848E-01 -4.08480584E-03 -3.48712817E-05  1.33885626E-02  1.14017665E-04
 -9.30410254E-03 -7.93536248E-05 -4.88864721E-02 -3.43931974E-01  8.80836242E-08
  6.23763284E-08 -1.90959365E-02  1.20473742E+00 -4.00880179E-07  1.25690001E-07
 -3.40254097E-01  4.94531163E-01  4.94531200E-01 -1.03244614E+00 -5.19948724E-07
  4.90614337E-07 -3.02337390E-07 -3.44621769E-01 -2.22876023E-01 -3.44622069E-01
 -2.22876112E-01 -3.44621614E-01 -2.22876380E-01 -2.96008339E-08  1.52609778E-07
  1.27806740E-01 -5.88009642E-02 -1.14269994E-07  1.50338077E-07  3.76395519E-01
 -1.73171200E-01 -8.89723651E-08 -6.96790746E-01  6.96790977E-01 -2.18279052E-07
 -3.70360210E-01 -6.38169646E-01  2.93607387E-01 -6.30792120E-01  8.15916383E-02
  7.02044678E-01 -9.08082312E-02 -7.12534116E-02  9.21674556E-03 -5.57080756E-08
  1.04710087E-07  5.88010648E-02  1.27807139E-01 -1.60693985E-07  8.23313984E-07
  1.73170709E-01  3.76395904E-01 -2.74295257E-07 -3.20741524E-01  3.20741859E-01
 -3.87404726E-07  8.04584530E-01 -2.93607036E-01 -6.38170209E-01  4.46463777E-01
 -5.77491923E-02  3.23049557E-01 -4.17862235E-02 -7.69514507E-01  9.95349802E-02
 -4.72715361E-01  3.01997197E+00 -1.72215456E-08 -7.82375374E-08  7.28460422E-02
  1.97636494E+00 -1.13218867E-07  1.70560347E-07 -2.76186919E-01 -1.84485026E+00
 -1.84485041E+00 -1.84647379E+00 -5.10307404E-08  7.51515647E-08  3.79101054E-08
  1.44569247E-01 -4.90217898E-01  1.44569062E-01 -4.90217776E-01  1.44569438E-01
 -4.90218266E-01
Orthonormal basis                          R   N=         441
  3.57584619E-02  1.69084215E-01 -2.61419318E-09  1.53099500E-08 -2.26283677E-02
  1.86736335E-01 -1.24664243E-08  1.77153814E-08 -3.56096445E-02  1.32984305E-01
  1.32984318E-01  1.24997352E-01 -2.04937986E-10 -1.68996008E-09 -6.34831621E-09
  8.46936891E-02  1.36254469E-01  8.46936789E-02  1.36254467E-01  8.46937360E-02
  1.36254511E-01 -5.42678199E-09 -2.73750615E-08 -5.86139159E-05  2.83957440E-01
 -2.13876059E-08 -4.00305067E-08 -7.39518075E-05  3.58161267E-01 -1.27379977E-08
  4.26834146E-07 -4.70217461E-07 -1.96061054E-08  8.23413977E-02  1.32667740E-05
 -6.43286686E-02 -2.35853439E-01 -1.87542611E-01  3.85117744E-05  3.06583927E-05
  2.35814925E-01  1.87511877E-01  1.64151474E-08  4.85049084E-08  2.87880846E-01
  5.93847274E-05 -7.93034760E-10  1.23047243E-08  3.62720453E-01  7.48018272E-05
  1.78421962E-08 -3.89955701E-02  3.89956319E-02  4.05984726E-08  1.00658395E-06
 -6.46527527E-02 -1.33486649E-05  1.35495380E-01  1.09046954E-01 -2.71057353E-01
 -2.18147488E-01  1.35561865E-01  1.09100356E-01  5.85385791E-02  1.54782044E-01
 -4.73472977E-08 -1.70305659E-09  4.57126473E-01  8.27617600E-02 -2.44060475E-08
  1.67974307E-08  4.89884382E-01  9.57772770E-02  9.57772043E-02  1.31208119E-01
  3.13692150E-08  2.47919030E-08  1.40512760E-08 -1.08949701E-01 -7.36925343E-02
 -1.08949600E-01 -7.36924901E-02 -1.08949656E-01 -7.36924974E-02  8.94508430E-08
  7.85446631E-08  5.43715663E-05 -2.80337243E-01 -1.14072033E-07 -1.35365888E-08
  4.61935024E-05 -2.38298921E-01 -5.71372301E-08 -6.31568659E-08  1.26007699E-07
  7.34463570E-08  6.46835449E-01  9.79184110E-05 -5.05335888E-01 -1.95385011E-01
  3.45725958E-02  2.90570827E-05 -5.20897369E-06  1.95355792E-01 -3.45675681E-02
  2.88126402E-09 -4.05181801E-09  2.38660044E-01  4.62705069E-05 -1.71293174E-08
  3.00127933E-08  1.90823372E-01  3.70206505E-05 -4.52901095E-08  1.06447458E-01
 -1.06447473E-01  5.61934513E-09  2.54845482E-07  8.72137148E-01  1.69260498E-04
 -1.00382587E-01  1.28529615E-02  2.00810035E-01 -2.57115994E-02 -1.00427505E-01
  1.28587189E-02  1.21953316E-06  1.96491732E-07 -2.07148728E-13 -2.29896816E-14
 -2.95423938E-07 -1.43353089E-08 -4.97566772E-14  5.66521494E-14 -1.83114173E-07
 -4.96072047E-08 -4.96074667E-08  1.47172647E-07  6.15640791E-01 -1.53116650E-04
  7.88026898E-01 -1.93510152E-07 -9.36173117E-08 -1.93510168E-07 -9.36172924E-08
 -1.93510154E-07 -9.36172040E-08  9.72387229E-01  9.43607046E-02 -9.01091803E-08
 -9.67256297E-09 -1.34614979E-01 -1.66270348E-02 -2.04755911E-08  2.19052617E-08
 -7.79720198E-02 -5.62508720E-02 -5.62509830E-02  2.70993574E-02 -9.43706139E-07
  6.58325790E-09 -9.47142230E-07 -7.47299539E-02 -5.59802578E-02 -7.47299557E-02
 -5.59802484E-02 -7.47299505E-02 -5.59802157E-02 -2.17714261E-01  3.85523309E-01
 -3.51136222E-07 -2.27745116E-07 -4.53207577E-01 -9.68157090E-02  4.70758418E-08
  1.80003095E-08 -1.27581464E-01  6.69153754E-02  6.69144323E-02  6.87262760E-01
 -4.53240479E-07 -5.49871345E-08  2.07067548E-08 -2.23872503E-01 -2.46944342E-01
 -2.23872314E-01 -2.46944368E-01 -2.23872279E-01 -2.46944154E-01  4.49349261E-08
 -2.24211785E-07  3.77693453E-01  7.33578502E-05  2.26163546E-07  1.52965956E-07
  1.40522654E-01  2.73627443E-05 -5.76358026E-08  6.50906908E-01 -6.50907169E-01
 -2.06587142E-07  1.33053715E-07 -3.93594647E-01 -7.65808973E-05 -1.48300054E-01
 -2.10245718E-02  2.96666645E-01  4.20592695E-02 -1.48366683E-01 -2.10339595E-02
  5.17833903E-04 -2.52549282E-01  1.26843397E-07  2.05172508E-08  2.62103108E-01
  1.61161261E-01 -4.35422011E-08  4.76747235E-08 -7.11912137E-02 -5.80111704E-01
 -5.80111124E-01  6.47960938E-01  1.04629115E-07  1.73131882E-08 -9.23956913E-08
 -8.01154244E-02  2.68220293E-01 -8.01155753E-02  2.68220330E-01 -8.01155483E-02
  2.68220313E-01  3.21531852E-08  1.74768066E-07 -2.14471481E-04  1.08622592E+00
 -1.96288677E-07 -1.09963114E-07  7.65653304E-05 -3.86907394E-01  9.81439691E-08
  1.08107276E-06 -1.10527576E-06  3.82495251E-07  2.27363669E-01  3.48855536E-05
 -1.77626352E-01  1.28523697E-01  3.71704119E-01 -1.92552221E-05 -5.72026078E-05
 -1.28504013E-01 -3.71647512E-01  3.87251718E-08  3.09046788E-07  1.02684452E+00
  2.03173804E-04 -3.96804736E-07 -2.40011890E-07 -4.61338448E-01 -9.11369821E-05
  2.25889810E-07 -3.10900017E-01  3.10900189E-01  4.46464259E-07  6.39160377E-07
 -9.68819653E-02 -1.93238773E-05 -1.77042911E-02 -2.20569266E-01  3.54176877E-02
  4.41239121E-01 -1.77128915E-02 -2.20670787E-01  2.87194070E-03 -2.40211339E-01
 -2.11017656E-07 -1.60977733E-07 -9.63598236E-01  2.83786193E-01  2.05708744E-07
  1.53344257E-07  1.11717043E+00 -1.86395220E-01 -1.86395412E-01 -2.56435199E-02
  7.04663530E-08 -6.76215458E-09 -2.26365877E-09  1.19745985E-01  6.81395242E-02
  1.19745982E-01  6.81393925E-02  1.19745828E-01  6.81396144E-02  1.11829401E-01
  1.26560818E-02 -3.57272790E-07 -5.01560576E-07  2.40776371E-01 -3.02994230E-01
  8.86289633E-07  8.43606943E-07  7.04450714E-02 -1.50211800E-01 -1.50211604E-01
  5.17035173E-01  5.47820067E-07 -3.56352707E-07 -1.84473268E-07  7.85678232E-01
 -4.05868592E-01  7.85678981E-01 -4.05869030E-01  7.85676592E-01 -4.05867850E-01
 -1.01715458E-07  2.92372141E-07 -7.09879035E-06  3.67570799E-02 -3.30867647E-07
  1.59540672E-07 -1.53350086E-04  7.81451912E-01 -2.44501006E-07  1.23194198E-06
 -6.33327411E-07 -3.99071528E-07  5.83774496E-01  8.94535880E-05 -4.56069938E-01
  1.00352848E+00 -2.81491436E-01 -1.53205080E-04  4.31940253E-05 -1.00337793E+00
  2.81449134E-01 -1.06224767E-07  2.40728891E-07  6.44184931E-02  1.27584986E-05
 -3.87054618E-07  3.64719193E-07  7.34359634E-01  1.44301880E-04 -2.18203344E-07
 -6.03032858E-01  6.03033364E-01 -4.14950951E-07  1.27342734E-06 -4.36827432E-01
 -8.58721030E-05 -5.67416708E-01  1.54793687E-01  1.13508951E+00 -3.09656796E-01
 -5.67675433E-01  1.54863970E-01  2.82032314E-08  6.34480118E-07  2.28780521E-04
 -5.74103324E-01 -4.65400891E-08 -1.16503117E-06 -8.50941392E-04  2.13349282E+00
  1.75470180E-07  1.65695407E-05 -1.65196937E-05  9.74007588E-08  8.83982998E-02
  2.77558274E-05 -6.90605804E-02 -2.98187427E-01  2.00930515E+00  1.14161072E-04
 -7.73627596E-04  2.98073102E-01 -2.00853042E+00  5.43142566E-08  2.22119677E-07
 -5.73591471E-01 -2.28729930E-04  1.07489120E-08 -5.47135546E-07  2.13480013E+00
  8.50550587E-04  6.31404663E-08 -8.08007108E-02  8.08008298E-02  1.98704463E-07
  1.79917286E-05 -6.98901753E-02 -2.76358478E-05  1.70667058E-01 -1.15893083E+00
 -3.41532512E-01  2.31920361E+00  1.70865720E-01 -1.16027227E+00 -4.21959369E-01
  3.61281452E+00 -4.78691347E-08  3.43891984E-08 -8.21447969E-03 -3.87565192E-01
 -5.67179076E-08 -5.07731552E-07  2.09434113E-01 -1.62793012E+00 -1.62793034E+00
 -1.53037633E+00 -4.91212940E-08  3.98047461E-08  8.62119766E-08  1.59143576E-01
  1.65619129E-01  1.59143504E-01  1.65619290E-01  1.59143689E-01  1.65619934E-01
 -3.15351082E-01 -2.40765923E-01  3.81616870E-09 -2.23357107E-07  2.14904280E-01
  5.62241050E+00  8.06274615E-08  1.57837977E-06 -1.25620873E+00 -7.79634029E-01
 -7.79633839E-01 -9.83564877E-01  3.52587880E-08  3.65838061E-08 -1.28876210E-07
 -1.75034600E-02 -1.71992765E+00 -1.75037851E-02 -1.71992725E+00 -1.75033865E-02
 -1.71993036E+00
Total SCF Density                          R   N=         231
  2.05319587E+00 -6.44997923E-02  3.22805380E-01 -8.14846587E-09  1.49094151E-09
  4.08507645E-01 -8.77971464E-09  2.65212368E-08  3.97569289E-08  4.08507662E-01
 -2.66368086E-03  1.33108975E-02 -6.93044592E-08 -3.39610246E-08  3.37819574E-01
 -1.90620079E-01  3.30826516E-01 -2.98340977E-08 -6.08617963E-08  1.00885303E-01
  3.69213788E-01  1.03762096E-09 -5.22490059E-09  1.73087846E-01  6.97580929E-09
 -3.20697866E-09 -1.20168530E-08  7.33386580E-02  7.96435182E-10 -2.65236355E-09
  6.98175602E-09  1.73087774E-01  8.62675346E-11 -3.62359268E-08 -1.22355980E-09
  7.33385940E-02 -1.34516459E-02  4.11792509E-02 -2.27788101E-08  5.72703673E-09
  2.60525143E-01  1.09473305E-01  9.85213648E-09  1.21987840E-08  2.03894674E-01
 -1.98651123E-02  1.49479993E-03 -1.56753011E-02 -3.05631612E-06 -4.98198899E-03
  1.42139101E-03 -6.64174667E-03 -1.29491174E-06 -3.62981258E-03  8.71482167E-04
 -1.98651196E-02  1.49481428E-03  1.56753134E-02  3.05885058E-06 -4.98200403E-03
  1.42140087E-03  6.64175097E-03  1.29537349E-06 -3.62982042E-03 -3.31506911E-04
  8.71483624E-04 -1.43168342E-02 -9.84938730E-03  9.37668211E-09 -6.88447202E-10
  5.19553074E-04 -8.86083730E-03  4.19762521E-09  1.59501525E-10 -5.04394785E-04
  9.67185507E-05  9.67188383E-05  4.33041941E-04  2.02114072E-09 -2.98280323E-09
 -3.51032854E-06  1.81002750E-02  7.51633185E-10 -6.42615794E-09 -1.48779063E-06
  7.66922288E-03  1.58220668E-09 -7.24516347E-10  6.95313650E-10  9.03371980E-11
  8.01992219E-04 -4.57396342E-09  4.15914761E-09 -2.11090661E-02 -8.77380718E-10
  1.53888790E-08  9.14542849E-09 -8.94407443E-03  1.37933004E-10  1.06554226E-08
  8.09999333E-04 -8.10000197E-04 -5.48741334E-10  1.81443511E-07  1.09078172E-03
  1.88086597E-09 -4.54489441E-09 -8.77056852E-10 -2.11090783E-02  9.55040489E-09
  1.89359934E-09  1.38378366E-10 -8.94407552E-03  5.37994124E-09  1.57744968E-07
 -1.58157609E-07  1.47858763E-10 -9.35307113E-04 -1.54991273E-11  1.09078294E-03
 -5.59830491E-02  1.07228344E-01  1.27096391E-01 -2.20104518E-01 -6.67068070E-02
  9.36027016E-02  5.38517207E-02 -9.32599535E-02 -4.08178952E-02 -2.98368642E-03
  6.76694503E-03 -3.19112350E-03 -9.75354890E-03 -6.56753136E-03  1.13735995E-02
  2.09339977E-01 -9.32660414E-03  2.71535354E-02  1.13520304E-01 -1.96593520E-01
 -4.59586213E-02  1.58883946E-02  4.80994308E-02 -8.32981617E-02 -3.26547984E-02
 -3.48736813E-03  5.22172414E-03 -9.26574800E-04 -8.71169890E-03 -5.86600613E-03
  1.01587020E-02  1.60258122E-01  1.35019472E-01 -5.59830162E-02  1.07228302E-01
 -2.54164329E-01 -1.64787794E-05 -6.67067295E-02  9.36026478E-02 -1.07691398E-01
 -6.98386305E-06 -4.08178523E-02  1.16444459E-02 -7.86119923E-03 -3.19113101E-03
  1.45307769E-06  1.31335883E-02  8.48046485E-07 -2.78630568E-02 -5.16075014E-02
  2.09339953E-01 -9.32658669E-03  2.71535162E-02 -2.27015253E-01 -1.47530665E-05
 -4.59585528E-02  1.58883655E-02 -9.61881211E-02 -6.24877632E-06 -3.26547588E-02
  9.57822974E-03 -7.84388406E-03 -9.26582004E-04  1.29735872E-06  1.17306971E-02
  7.60315441E-07 -5.16075077E-02 -5.42152280E-02  1.60258179E-01  1.35019583E-01
 -5.59830634E-02  1.07228379E-01  1.27067874E-01  2.20121036E-01 -6.67068462E-02
  9.36026417E-02  5.38396273E-02  9.32669307E-02 -4.08178905E-02 -2.98588404E-03
  6.76914559E-03 -3.19112441E-03  9.75209182E-03 -6.56605652E-03 -1.13744578E-02
 -2.78630707E-02 -5.16075076E-02 -2.78630432E-02 -5.16075342E-02  2.09340014E-01
 -9.32658372E-03  2.71535108E-02  1.13494846E-01  1.96608227E-01 -4.59586205E-02
  1.58882927E-02  4.80886345E-02  8.33043810E-02 -3.26547720E-02 -3.48933252E-03
  5.22368909E-03 -9.26573988E-04  8.71039742E-03 -5.86468949E-03 -1.01594640E-02
 -5.16075037E-02 -5.42152008E-02 -5.16075239E-02 -5.42152686E-02  1.60258106E-01
  1.35019441E-01
Spin SCF Density                           R   N=         231
  6.27150466E-03 -1.38183415E-02  3.04466905E-02 -3.95819427E-09  8.72130104E-09
  2.49800181E-15 -2.18262414E-09  4.80909244E-09  1.37754029E-15  7.49400542E-16
 -4.43151444E-02  9.76419267E-02  2.79690378E-08  1.54226631E-08  3.13135703E-01
 -2.56917552E-02  5.66080177E-02  1.62150814E-08  8.94130644E-09  1.81540779E-01
  1.05248472E-01 -4.84480152E-09  1.06748102E-08  3.05311332E-15  1.68609948E-15
  3.42339025E-08  1.98471438E-08  3.74006381E-15 -2.27908151E-09  5.02162213E-09