 Default is to use a total of   8 processors:
                                8 via shared-memory
                                1 via Linda
 Entering Link 1 = d:\study\G16W\l1.exe PID=     28816.
  
 Copyright (c) 1988-2017, Gaussian, Inc.  All Rights Reserved.
  
 This is part of the Gaussian(R) 16 program.  It is based on
 the Gaussian(R) 09 system (copyright 2009, Gaussian, Inc.),
 the Gaussian(R) 03 system (copyright 2003, Gaussian, Inc.),
 the Gaussian(R) 98 system (copyright 1998, Gaussian, Inc.),
 the Gaussian(R) 94 system (copyright 1995, Gaussian, Inc.),
 the Gaussian 92(TM) system (copyright 1992, Gaussian, Inc.),
 the Gaussian 90(TM) system (copyright 1990, Gaussian, Inc.),
 the Gaussian 88(TM) system (copyright 1988, Gaussian, Inc.),
 the Gaussian 86(TM) system (copyright 1986, Carnegie Mellon
 University), and the Gaussian 82(TM) system (copyright 1983,
 Carnegie Mellon University). Gaussian is a federally registered
 trademark of Gaussian, Inc.
  
 This software contains proprietary and confidential information,
 including trade secrets, belonging to Gaussian, Inc.
  
 This software is provided under written license and may be
 used, copied, transmitted, or stored only in accord with that
 written license.
  
 The following legend is applicable only to US Government
 contracts under FAR:
  
                    RESTRICTED RIGHTS LEGEND
  
 Use, reproduction and disclosure by the US Government is
 subject to restrictions as set forth in subparagraphs (a)
 and (c) of the Commercial Computer Software - Restricted
 Rights clause in FAR 52.227-19.
  
 Gaussian, Inc.
 340 Quinnipiac St., Bldg. 40, Wallingford CT 06492
  
  
 ---------------------------------------------------------------
 Warning -- This program may not be used in any manner that
 competes with the business of Gaussian, Inc. or will provide
 assistance to any competitor of Gaussian, Inc.  The licensee
 of this program is prohibited from giving any competitor of
 Gaussian, Inc. access to this program.  By using this program,
 the user acknowledges that Gaussian, Inc. is engaged in the
 business of creating and licensing software in the field of
 computational chemistry and represents and warrants to the
 licensee that it is not a competitor of Gaussian, Inc. and that
 it will not use this program in any manner prohibited above.
 ---------------------------------------------------------------
  

 Cite this work as:
 Gaussian 16, Revision B.01,
 M. J. Frisch, G. W. Trucks, H. B. Schlegel, G. E. Scuseria, 
 M. A. Robb, J. R. Cheeseman, G. Scalmani, V. Barone, 
 G. A. Petersson, H. Nakatsuji, X. Li, M. Caricato, A. V. Marenich, 
 J. Bloino, B. G. Janesko, R. Gomperts, B. Mennucci, H. P. Hratchian, 
 J. V. Ortiz, A. F. Izmaylov, J. L. Sonnenberg, D. Williams-Young, 
 F. Ding, F. Lipparini, F. Egidi, J. Goings, B. Peng, A. Petrone, 
 T. Henderson, D. Ranasinghe, V. G. Zakrzewski, J. Gao, N. Rega, 
 G. Zheng, W. Liang, M. Hada, M. Ehara, K. Toyota, R. Fukuda, 
 J. Hasegawa, M. Ishida, T. Nakajima, Y. Honda, O. Kitao, H. Nakai, 
 T. Vreven, K. Throssell, J. A. Montgomery, Jr., J. E. Peralta, 
 F. Ogliaro, M. J. Bearpark, J. J. Heyd, E. N. Brothers, K. N. Kudin, 
 V. N. Staroverov, T. A. Keith, R. Kobayashi, J. Normand, 
 K. Raghavachari, A. P. Rendell, J. C. Burant, S. S. Iyengar, 
 J. Tomasi, M. Cossi, J. M. Millam, M. Klene, C. Adamo, R. Cammi, 
 J. W. Ochterski, R. L. Martin, K. Morokuma, O. Farkas, 
 J. B. Foresman, and D. J. Fox, Gaussian, Inc., Wallingford CT, 2016.
 
 ******************************************
 Gaussian 16:  EM64W-G16RevB.01 16-Dec-2017
                28-May-2021 
 ******************************************
 %chk=C:\ethane.chk
 ------------------
 # b3lyp/6-31G* opt
 ------------------
 1/18=20,19=15,26=3,38=1/1,3;
 2/9=110,12=2,17=6,18=5,40=1/2;
 3/5=1,6=6,7=1,11=2,25=1,30=1,71=1,74=-5/1,2,3;
 4//1;
 5/5=2,38=5/2;
 6/7=2,8=2,9=2,10=2,28=1/1;
 7//1,2,3,16;
 1/18=20,19=15,26=3/3(2);
 2/9=110/2;
 99//99;
 2/9=110/2;
 3/5=1,6=6,7=1,11=2,25=1,30=1,71=1,74=-5/1,2,3;
 4/5=5,16=3,69=1/1;
 5/5=2,38=5/2;
 7//1,2,3,16;
 1/18=20,19=15,26=3/3(-5);
 2/9=110/2;
 6/7=2,8=2,9=2,10=2,19=2,28=1/1;
 99/9=1/99;
 ----
 test
 ----
 Symbolic Z-matrix:
 Charge =  0 Multiplicity = 1
 C                    -1.19198   1.81297   0.7662 
 H                    -2.22737   2.15997   0.82753 
 H                    -0.5505    2.69761   0.72034 
 H                    -0.96449   1.2894    1.69911 
 C                    -0.97887   0.90616  -0.44833 
 H                     0.0566    0.55946  -0.50987 
 H                    -1.62008   0.02133  -0.40228 
 H                    -1.20674   1.42961  -1.38122 
 

 GradGradGradGradGradGradGradGradGradGradGradGradGradGradGradGradGradGrad
 Berny optimization.
 Initialization pass.
                           ----------------------------
                           !    Initial Parameters    !
                           ! (Angstroms and Degrees)  !
 --------------------------                            --------------------------
 ! Name  Definition              Value          Derivative Info.                !
 --------------------------------------------------------------------------------
 ! R1    R(1,2)                  1.0937         estimate D2E/DX2                !
 ! R2    R(1,3)                  1.0937         estimate D2E/DX2                !
 ! R3    R(1,4)                  1.0937         estimate D2E/DX2                !
 ! R4    R(1,5)                  1.5306         estimate D2E/DX2                !
 ! R5    R(5,6)                  1.0937         estimate D2E/DX2                !
 ! R6    R(5,7)                  1.0937         estimate D2E/DX2                !
 ! R7    R(5,8)                  1.0937         estimate D2E/DX2                !
 ! A1    A(2,1,3)              107.5155         estimate D2E/DX2                !
 ! A2    A(2,1,4)              107.5155         estimate D2E/DX2                !
 ! A3    A(2,1,5)              111.3625         estimate D2E/DX2                !
 ! A4    A(3,1,4)              107.5155         estimate D2E/DX2                !
 ! A5    A(3,1,5)              111.3625         estimate D2E/DX2                !
 ! A6    A(4,1,5)              111.3625         estimate D2E/DX2                !
 ! A7    A(1,5,6)              111.3625         estimate D2E/DX2                !
 ! A8    A(1,5,7)              111.3625         estimate D2E/DX2                !
 ! A9    A(1,5,8)              111.3625         estimate D2E/DX2                !
 ! A10   A(6,5,7)              107.5155         estimate D2E/DX2                !
 ! A11   A(6,5,8)              107.5155         estimate D2E/DX2                !
 ! A12   A(7,5,8)              107.5155         estimate D2E/DX2                !
 ! D1    D(2,1,5,6)            179.9783         estimate D2E/DX2                !
 ! D2    D(2,1,5,7)            -60.0217         estimate D2E/DX2                !
 ! D3    D(2,1,5,8)             59.9783         estimate D2E/DX2                !
 ! D4    D(3,1,5,6)             59.9783         estimate D2E/DX2                !
 ! D5    D(3,1,5,7)            179.9783         estimate D2E/DX2                !
 ! D6    D(3,1,5,8)            -60.0217         estimate D2E/DX2                !
 ! D7    D(4,1,5,6)            -60.0217         estimate D2E/DX2                !
 ! D8    D(4,1,5,7)             59.9783         estimate D2E/DX2                !
 ! D9    D(4,1,5,8)            179.9783         estimate D2E/DX2                !
 --------------------------------------------------------------------------------
 Trust Radius=3.00D-01 FncErr=1.00D-07 GrdErr=1.00D-06 EigMax=2.50D+02 EigMin=1.00D-04
 Number of steps in this run=     38 maximum allowed number of steps=    100.
 GradGradGradGradGradGradGradGradGradGradGradGradGradGradGradGradGradGrad

                          Input orientation:                          
 ---------------------------------------------------------------------
 Center     Atomic      Atomic             Coordinates (Angstroms)
 Number     Number       Type             X           Y           Z
 ---------------------------------------------------------------------
      1          6           0       -1.191982    1.812966    0.766198
      2          1           0       -2.227368    2.159972    0.827526
      3          1           0       -0.550503    2.697612    0.720341
      4          1           0       -0.964485    1.289405    1.699111
      5          6           0       -0.978874    0.906164   -0.448328
      6          1           0        0.056601    0.559465   -0.509870
      7          1           0       -1.620077    0.021327   -0.402281
      8          1           0       -1.206738    1.429607   -1.381218
 ---------------------------------------------------------------------
                    Distance matrix (angstroms):
                    1          2          3          4          5
     1  C    0.000000
     2  H    1.093708   0.000000
     3  H    1.093708   1.764205   0.000000
     4  H    1.093708   1.764205   1.764205   0.000000
     5  C    1.530614   2.181416   2.181416   2.181416   0.000000
     6  H    2.181416   3.093019   2.540407   2.540675   1.093708
     7  H    2.181416   2.540675   3.093019   2.540407   1.093708
     8  H    2.181416   2.540407   2.540675   3.093019   1.093708
                    6          7          8
     6  H    0.000000
     7  H    1.764205   0.000000
     8  H    1.764205   1.764205   0.000000
 Stoichiometry    C2H6
 Framework group  D3[C3(C.C),X(H6)]
 Deg. of freedom     4
 Full point group                 D3      NOp   6
 Largest Abelian subgroup         C2      NOp   2
 Largest concise Abelian subgroup C2      NOp   2
                         Standard orientation:                         
 ---------------------------------------------------------------------
 Center     Atomic      Atomic             Coordinates (Angstroms)
 Number     Number       Type             X           Y           Z
 ---------------------------------------------------------------------
      1          6           0        0.000000    0.000000    0.765307
      2          1           0       -0.509115    0.882199    1.163709
      3          1           0        1.018564   -0.000193    1.163709
      4          1           0       -0.509449   -0.882006    1.163709
      5          6           0        0.000000    0.000000   -0.765307
      6          1           0        0.509449   -0.882006   -1.163709
      7          1           0       -1.018564   -0.000193   -1.163709
      8          1           0        0.509115    0.882199   -1.163709
 ---------------------------------------------------------------------
 Rotational constants (GHZ):          80.5571210          19.9106530          19.9106530
 Standard basis: 6-31G(d) (6D, 7F)
 There are    21 symmetry adapted cartesian basis functions of A   symmetry.
 There are    21 symmetry adapted cartesian basis functions of B   symmetry.
 There are    21 symmetry adapted basis functions of A   symmetry.
 There are    21 symmetry adapted basis functions of B   symmetry.
    42 basis functions,    80 primitive gaussians,    42 cartesian basis functions
     9 alpha electrons        9 beta electrons
       nuclear repulsion energy        42.1601601452 Hartrees.
 NAtoms=    8 NActive=    8 NUniq=    2 SFac= 4.00D+00 NAtFMM=   60 NAOKFM=F Big=F
 Integral buffers will be    131072 words long.
 Raffenetti 2 integral format.
 Two-electron integral symmetry is turned on.
 One-electron integrals computed using PRISM.
 NBasis=    42 RedAO= T EigKep=  8.46D-03  NBF=    21    21
 NBsUse=    42 1.00D-06 EigRej= -1.00D+00 NBFU=    21    21
 ExpMin= 1.61D-01 ExpMax= 3.05D+03 ExpMxC= 4.57D+02 IAcc=3 IRadAn=         5 AccDes= 0.00D+00
 Harris functional with IExCor=  402 and IRadAn=       5 diagonalized for initial guess.
 HarFok:  IExCor=  402 AccDes= 0.00D+00 IRadAn=         5 IDoV= 1 UseB2=F ITyADJ=14
 ICtDFT=  3500011 ScaDFX=  1.000000  1.000000  1.000000  1.000000
 FoFCou: FMM=F IPFlag=           0 FMFlag=      100000 FMFlg1=           0
         NFxFlg=           0 DoJE=T BraDBF=F KetDBF=T FulRan=T
         wScrn=  0.000000 ICntrl=       500 IOpCl=  0 I1Cent=   200000004 NGrid=           0
         NMat0=    1 NMatS0=      1 NMatT0=    0 NMatD0=    1 NMtDS0=    0 NMtDT0=    0
 Petite list used in FoFCou.
 Initial guess orbital symmetries:
       Occupied  (A1) (A2) (A1) (A2) (E) (E) (A1) (E) (E)
       Virtual   (A1) (E) (E) (A2) (E) (E) (A2) (A1) (E) (E) (A2)
                 (E) (E) (E) (E) (A1) (E) (E) (A2) (A1) (A2) (E)
                 (E) (A1) (E) (E) (E) (E) (E) (E) (A2) (A1) (A2)
 The electronic state of the initial guess is 1-A1.
 Keep R1 ints in memory in symmetry-blocked form, NReq=7326758.
 Requested convergence on RMS density matrix=1.00D-08 within 128 cycles.
 Requested convergence on MAX density matrix=1.00D-06.
 Requested convergence on             energy=1.00D-06.
 No special actions if energy rises.
 Integral accuracy reduced to 1.0D-05 until final iterations.
 Initial convergence to 1.0D-05 achieved.  Increase integral accuracy.
 SCF Done:  E(RB3LYP) =  -79.8303982539     A.U. after    8 cycles
            NFock=  8  Conv=0.21D-08     -V/T= 2.0106

 **********************************************************************

            Population analysis using the SCF Density.

 **********************************************************************

 Orbital symmetries:
       Occupied  (A1) (A2) (A1) (A2) (E) (E) (A1) (E) (E)
       Virtual   (A1) (A2) (E) (E) (E) (E) (A2) (A1) (E) (E) (E)
                 (E) (A2) (E) (E) (A1) (E) (E) (A2) (A1) (A2) (E)
                 (E) (A1) (E) (E) (E) (E) (E) (E) (A2) (A1) (A2)
 The electronic state is 1-A1.
 Alpha  occ. eigenvalues --  -10.17152 -10.17131  -0.74780  -0.61274  -0.43043
 Alpha  occ. eigenvalues --   -0.43043  -0.36286  -0.34044  -0.34044
 Alpha virt. eigenvalues --    0.10528   0.15662   0.16463   0.16463   0.19080
 Alpha virt. eigenvalues --    0.19080   0.24274   0.51309   0.54304   0.54304
 Alpha virt. eigenvalues --    0.63623   0.63623   0.66889   0.88473   0.88473
 Alpha virt. eigenvalues --    0.90970   0.92127   0.92127   0.98222   1.06673
 Alpha virt. eigenvalues --    1.44004   1.52623   1.52623   1.93306   1.98129
 Alpha virt. eigenvalues --    1.98129   2.27400   2.27400   2.33585   2.33585
 Alpha virt. eigenvalues --    2.58751   4.14654   4.36696
          Condensed to atoms (all electrons):
               1          2          3          4          5          6
     1  C    5.011133   0.383191   0.383191   0.383191   0.376666  -0.034518
     2  H    0.383191   0.574329  -0.032497  -0.032497  -0.034518   0.004661
     3  H    0.383191  -0.032497   0.574329  -0.032497  -0.034518  -0.003642
     4  H    0.383191  -0.032497  -0.032497   0.574329  -0.034518  -0.003635
     5  C    0.376666  -0.034518  -0.034518  -0.034518   5.011133   0.383191
     6  H   -0.034518   0.004661  -0.003642  -0.003635   0.383191   0.574329
     7  H   -0.034518  -0.003635   0.004661  -0.003642   0.383191  -0.032497
     8  H   -0.034518  -0.003642  -0.003635   0.004661   0.383191  -0.032497
               7          8
     1  C   -0.034518  -0.034518
     2  H   -0.003635  -0.003642
     3  H    0.004661  -0.003635
     4  H   -0.003642   0.004661
     5  C    0.383191   0.383191
     6  H   -0.032497  -0.032497
     7  H    0.574329  -0.032497
     8  H   -0.032497   0.574329
 Mulliken charges:
               1
     1  C   -0.433820
     2  H    0.144607
     3  H    0.144607
     4  H    0.144607
     5  C   -0.433820
     6  H    0.144607
     7  H    0.144607
     8  H    0.144607
 Sum of Mulliken charges =   0.00000
 Mulliken charges with hydrogens summed into heavy atoms:
               1
     1  C    0.000000
     5  C    0.000000
 Electronic spatial extent (au):  <R**2>=            109.5200
 Charge=              0.0000 electrons
 Dipole moment (field-independent basis, Debye):
    X=              0.0000    Y=              0.0000    Z=              0.0000  Tot=              0.0000
 Quadrupole moment (field-independent basis, Debye-Ang):
   XX=            -14.7050   YY=            -14.7050   ZZ=            -15.2130
   XY=              0.0000   XZ=              0.0000   YZ=              0.0000
 Traceless Quadrupole moment (field-independent basis, Debye-Ang):
   XX=              0.1693   YY=              0.1693   ZZ=             -0.3387
   XY=              0.0000   XZ=              0.0000   YZ=              0.0000
 Octapole moment (field-independent basis, Debye-Ang**2):
  XXX=              0.0000  YYY=              0.0005  ZZZ=              0.0000  XYY=              0.0000
  XXY=             -0.0005  XXZ=              0.0000  XZZ=              0.0000  YZZ=              0.0000
  YYZ=              0.0000  XYZ=              0.0000
 Hexadecapole moment (field-independent basis, Debye-Ang**3):
 XXXX=            -28.5580 YYYY=            -28.5580 ZZZZ=            -92.5487 XXXY=              0.0000
 XXXZ=              1.1868 YYYX=              0.0000 YYYZ=              0.0000 ZZZX=              0.0000
 ZZZY=              0.0000 XXYY=             -9.5193 XXZZ=            -19.1235 YYZZ=            -19.1235
 XXYZ=              0.0000 YYXZ=             -1.1868 ZZXY=              0.0000
 N-N= 4.216016014523D+01 E-N=-2.681400975364D+02  KE= 7.899364293772D+01
 Symmetry A    KE= 4.074106487389D+01
 Symmetry B    KE= 3.825257806383D+01
 Calling FoFJK, ICntrl=      2127 FMM=F ISym2X=1 I1Cent= 0 IOpClX= 0 NMat=1 NMatS=1 NMatT=0.
 ***** Axes restored to original set *****
 -------------------------------------------------------------------
 Center     Atomic                   Forces (Hartrees/Bohr)
 Number     Number              X              Y              Z
 -------------------------------------------------------------------
      1        6           0.000207007   -0.000880841   -0.001179755
      2        1          -0.001545453    0.000473028    0.000029457
      3        1           0.000974322    0.001282972   -0.000133137
      4        1           0.000354436   -0.000833939    0.001338644
      5        6          -0.000207007    0.000880841    0.001179755
      6        1           0.001544924   -0.000474827   -0.000028206
      7        1          -0.000975936   -0.001281860    0.000132024
      8        1          -0.000352294    0.000834626   -0.001338781
 -------------------------------------------------------------------
 Cartesian Forces:  Max     0.001545453 RMS     0.000915136

 GradGradGradGradGradGradGradGradGradGradGradGradGradGradGradGradGradGrad
 Berny optimization.
 FormGI is forming the generalized inverse of G from B-inverse, IUseBI=4.
 Internal  Forces:  Max     0.001614772 RMS     0.000749199
 Search for a local minimum.
 Step number   1 out of a maximum of   38
 All quantities printed in internal units (Hartrees-Bohrs-Radians)
 Mixed Optimization -- En-DIIS/RFO-DIIS
 Second derivative matrix not updated -- first step.
 ITU=  0
     Eigenvalues ---    0.00361   0.05454   0.05454   0.05454   0.05454
     Eigenvalues ---    0.16000   0.16000   0.16000   0.16000   0.16000
     Eigenvalues ---    0.16000   0.29367   0.34388   0.34388   0.34388
     Eigenvalues ---    0.34388   0.34388   0.34388
 RFO step:  Lambda=-4.59304946D-05 EMin= 3.60983023D-03
 Linear search not attempted -- first point.
 Iteration  1 RMS(Cart)=  0.00222898 RMS(Int)=  0.00000084
 Iteration  2 RMS(Cart)=  0.00000111 RMS(Int)=  0.00000006
 Iteration  3 RMS(Cart)=  0.00000000 RMS(Int)=  0.00000006
 ClnCor:  largest displacement from symmetrization is 3.71D-13 for atom     6.
 Variable       Old X    -DE/DX   Delta X   Delta X   Delta X     New X
                                 (Linear)    (Quad)   (Total)
    R1        2.06681   0.00161   0.00000   0.00470   0.00470   2.07150
    R2        2.06681   0.00161   0.00000   0.00470   0.00470   2.07150
    R3        2.06681   0.00161   0.00000   0.00470   0.00470   2.07150
    R4        2.89244   0.00007   0.00000   0.00024   0.00024   2.89268
    R5        2.06681   0.00161   0.00000   0.00470   0.00470   2.07150
    R6        2.06681   0.00161   0.00000   0.00470   0.00470   2.07150
    R7        2.06681   0.00161   0.00000   0.00470   0.00470   2.07150
    A1        1.87650   0.00008   0.00000   0.00048   0.00048   1.87698
    A2        1.87650   0.00008   0.00000   0.00048   0.00048   1.87698
    A3        1.94364  -0.00007   0.00000  -0.00045  -0.00045   1.94319
    A4        1.87650   0.00008   0.00000   0.00048   0.00048   1.87698
    A5        1.94364  -0.00007   0.00000  -0.00045  -0.00045   1.94319
    A6        1.94364  -0.00007   0.00000  -0.00045  -0.00045   1.94319
    A7        1.94364  -0.00007   0.00000  -0.00045  -0.00045   1.94319
    A8        1.94364  -0.00007   0.00000  -0.00045  -0.00045   1.94319
    A9        1.94364  -0.00007   0.00000  -0.00045  -0.00045   1.94319
   A10        1.87650   0.00008   0.00000   0.00048   0.00048   1.87698
   A11        1.87650   0.00008   0.00000   0.00048   0.00048   1.87698
   A12        1.87650   0.00008   0.00000   0.00048   0.00048   1.87698
    D1        3.14121   0.00000   0.00000   0.00025   0.00025   3.14146
    D2       -1.04758   0.00000   0.00000   0.00025   0.00025  -1.04733
    D3        1.04682   0.00000   0.00000   0.00025   0.00025   1.04707
    D4        1.04682   0.00000   0.00000   0.00025   0.00025   1.04707
    D5        3.14121   0.00000   0.00000   0.00025   0.00025   3.14146
    D6       -1.04758   0.00000   0.00000   0.00025   0.00025  -1.04733
    D7       -1.04758   0.00000   0.00000   0.00025   0.00025  -1.04733
    D8        1.04682   0.00000   0.00000   0.00025   0.00025   1.04707
    D9        3.14121   0.00000   0.00000   0.00025   0.00025   3.14146
         Item               Value     Threshold  Converged?
 Maximum Force            0.001615     0.000450     NO 
 RMS     Force            0.000749     0.000300     NO 
 Maximum Displacement     0.004723     0.001800     NO 
 RMS     Displacement     0.002229     0.001200     NO 
 Predicted change in Energy=-2.296525D-05
 GradGradGradGradGradGradGradGradGradGradGradGradGradGradGradGradGradGrad

                          Input orientation:                          
 ---------------------------------------------------------------------
 Center     Atomic      Atomic             Coordinates (Angstroms)
 Number     Number       Type             X           Y           Z
 ---------------------------------------------------------------------
      1          6           0       -1.191991    1.813003    0.766248
      2          1           0       -2.229867    2.160444    0.827376
      3          1           0       -0.548958    2.699563    0.719795
      4          1           0       -0.963743    1.287885    1.701016
      5          6           0       -0.978866    0.906126   -0.448378
      6          1           0        0.059042    0.558791   -0.509580
      7          1           0       -1.621803    0.019500   -0.401860
      8          1           0       -1.207240    1.431204   -1.383139
 ---------------------------------------------------------------------
                    Distance matrix (angstroms):
                    1          2          3          4          5
     1  C    0.000000
     2  H    1.096193   0.000000
     3  H    1.096193   1.768524   0.000000
     4  H    1.096193   1.768524   1.768524   0.000000
     5  C    1.530739   2.183086   2.183086   2.183086   0.000000
     6  H    2.183086   3.097070   2.542426   2.542518   1.096193
     7  H    2.183086   2.542518   3.097070   2.542426   1.096193
     8  H    2.183086   2.542426   2.542518   3.097070   1.096193
                    6          7          8
     6  H    0.000000
     7  H    1.768524   0.000000
     8  H    1.768524   1.768524   0.000000
 Stoichiometry    C2H6
 Framework group  D3[C3(C.C),X(H6)]
 Deg. of freedom     4
 Full point group                 D3      NOp   6
 Largest Abelian subgroup         C2      NOp   2
 Largest concise Abelian subgroup C2      NOp   2
                         Standard orientation:                         
 ---------------------------------------------------------------------
 Center     Atomic      Atomic             Coordinates (Angstroms)
 Number     Number       Type             X           Y           Z
 ---------------------------------------------------------------------
      1          6           0        0.000000    0.000000    0.765370
      2          1           0       -0.510471    0.884295    1.164217
      3          1           0        1.021058   -0.000066    1.164217
      4          1           0       -0.510586   -0.884229    1.164217
      5          6           0        0.000000    0.000000   -0.765370
      6          1           0        0.510586   -0.884229   -1.164217
      7          1           0       -1.021058   -0.000066   -1.164217
      8          1           0        0.510471    0.884295   -1.164217
 ---------------------------------------------------------------------
 Rotational constants (GHZ):          80.1641465          19.8911927          19.8911927
 Standard basis: 6-31G(d) (6D, 7F)
 There are    21 symmetry adapted cartesian basis functions of A   symmetry.
 There are    21 symmetry adapted cartesian basis functions of B   symmetry.
 There are    21 symmetry adapted basis functions of A   symmetry.
 There are    21 symmetry adapted basis functions of B   symmetry.
    42 basis functions,    80 primitive gaussians,    42 cartesian basis functions
     9 alpha electrons        9 beta electrons
       nuclear repulsion energy        42.1069657308 Hartrees.
 NAtoms=    8 NActive=    8 NUniq=    2 SFac= 4.00D+00 NAtFMM=   60 NAOKFM=F Big=F
 Integral buffers will be    131072 words long.
 Raffenetti 2 integral format.
 Two-electron integral symmetry is turned on.
 One-electron integrals computed using PRISM.
 NBasis=    42 RedAO= T EigKep=  8.49D-03  NBF=    21    21
 NBsUse=    42 1.00D-06 EigRej= -1.00D+00 NBFU=    21    21
 Initial guess from the checkpoint file:  "C:\ethane.chk"
 B after Tr=     0.000000    0.000000    0.000000
         Rot=    1.000000    0.000000    0.000000    0.000000 Ang=   0.00 deg.
 Initial guess orbital symmetries:
       Occupied  (A1) (A2) (A1) (A2) (E) (E) (A1) (E) (E)
       Virtual   (A1) (A2) (E) (E) (E) (E) (A2) (A1) (E) (E) (E)
                 (E) (A2) (E) (E) (A1) (E) (E) (A2) (A1) (A2) (E)
                 (E) (A1) (E) (E) (E) (E) (E) (E) (A2) (A1) (A2)
 Keep R1 ints in memory in symmetry-blocked form, NReq=7326758.
 Requested convergence on RMS density matrix=1.00D-08 within 128 cycles.
 Requested convergence on MAX density matrix=1.00D-06.
 Requested convergence on             energy=1.00D-06.
 No special actions if energy rises.
 SCF Done:  E(RB3LYP) =  -79.8304207248     A.U. after    6 cycles
            NFock=  6  Conv=0.34D-08     -V/T= 2.0108
 Calling FoFJK, ICntrl=      2127 FMM=F ISym2X=1 I1Cent= 0 IOpClX= 0 NMat=1 NMatS=1 NMatT=0.
 ***** Axes restored to original set *****
 -------------------------------------------------------------------
 Center     Atomic                   Forces (Hartrees/Bohr)
 Number     Number              X              Y              Z
 -------------------------------------------------------------------
      1        6           0.000018865   -0.000080272   -0.000107512
      2        1           0.000029741    0.000008092    0.000025149
      3        1          -0.000026517   -0.000009201    0.000028189
      4        1          -0.000011831    0.000037738   -0.000004280
      5        6          -0.000018865    0.000080272    0.000107512
      6        1          -0.000029985   -0.000008924   -0.000024570
      7        1           0.000025771    0.000009716   -0.000028704
      8        1           0.000012822   -0.000037420    0.000004217
 -------------------------------------------------------------------
 Cartesian Forces:  Max     0.000107512 RMS     0.000043880

 GradGradGradGradGradGradGradGradGradGradGradGradGradGradGradGradGradGrad
 Berny optimization.
 Using GEDIIS/GDIIS optimizer.
 FormGI is forming the generalized inverse of G from B-inverse, IUseBI=4.
 Internal  Forces:  Max     0.000073667 RMS     0.000027354
 Search for a local minimum.
 Step number   2 out of a maximum of   38
 All quantities printed in internal units (Hartrees-Bohrs-Radians)
 Mixed Optimization -- En-DIIS/RFO-DIIS
 Swapping is turned off.
 Update second derivatives using D2CorX and points    1    2
 DE= -2.25D-05 DEPred=-2.30D-05 R= 9.78D-01
 TightC=F SS=  1.41D+00  RLast= 1.16D-02 DXNew= 5.0454D-01 3.4919D-02
 Trust test= 9.78D-01 RLast= 1.16D-02 DXMaxT set to 3.00D-01
 ITU=  1  0
     Eigenvalues ---    0.00361   0.05458   0.05458   0.05458   0.05458
     Eigenvalues ---    0.16000   0.16000   0.16000   0.16000   0.16000
     Eigenvalues ---    0.16097   0.29327   0.34388   0.34388   0.34388
     Eigenvalues ---    0.34388   0.34388   0.34884
 En-DIIS/RFO-DIIS/Sim-DIIS IScMMF=       -3 using points:     2    1
 RFO step:  Lambda=-1.00487937D-07.
 DidBck=F Rises=F RFO-DIIS coefs:    0.98055    0.01945
 Iteration  1 RMS(Cart)=  0.00014505 RMS(Int)=  0.00000002
 Iteration  2 RMS(Cart)=  0.00000002 RMS(Int)=  0.00000001
 ClnCor:  largest displacement from symmetrization is 8.43D-13 for atom     4.
 Variable       Old X    -DE/DX   Delta X   Delta X   Delta X     New X
                                 (Linear)    (Quad)   (Total)
    R1        2.07150  -0.00002  -0.00009   0.00003  -0.00006   2.07144
    R2        2.07150  -0.00002  -0.00009   0.00003  -0.00006   2.07144
    R3        2.07150  -0.00002  -0.00009   0.00003  -0.00006   2.07144
    R4        2.89268  -0.00007   0.00000  -0.00024  -0.00025   2.89243
    R5        2.07150  -0.00002  -0.00009   0.00003  -0.00006   2.07144
    R6        2.07150  -0.00002  -0.00009   0.00003  -0.00006   2.07144
    R7        2.07150  -0.00002  -0.00009   0.00003  -0.00006   2.07144
    A1        1.87698  -0.00003  -0.00001  -0.00019  -0.00020   1.87678
    A2        1.87698  -0.00003  -0.00001  -0.00019  -0.00020   1.87678
    A3        1.94319   0.00003   0.00001   0.00018   0.00019   1.94338
    A4        1.87698  -0.00003  -0.00001  -0.00019  -0.00020   1.87678
    A5        1.94319   0.00003   0.00001   0.00018   0.00019   1.94338
    A6        1.94319   0.00003   0.00001   0.00018   0.00019   1.94338
    A7        1.94319   0.00003   0.00001   0.00018   0.00019   1.94338
    A8        1.94319   0.00003   0.00001   0.00018   0.00019   1.94338
    A9        1.94319   0.00003   0.00001   0.00018   0.00019   1.94338
   A10        1.87698  -0.00003  -0.00001  -0.00019  -0.00020   1.87678
   A11        1.87698  -0.00003  -0.00001  -0.00019  -0.00020   1.87678
   A12        1.87698  -0.00003  -0.00001  -0.00019  -0.00020   1.87678
    D1        3.14146   0.00000   0.00000   0.00010   0.00009   3.14155
    D2       -1.04733   0.00000   0.00000   0.00010   0.00009  -1.04724
    D3        1.04707   0.00000   0.00000   0.00010   0.00009   1.04716
    D4        1.04707   0.00000   0.00000   0.00010   0.00009   1.04716
    D5        3.14146   0.00000   0.00000   0.00010   0.00009   3.14155
    D6       -1.04733   0.00000   0.00000   0.00010   0.00009  -1.04724
    D7       -1.04733   0.00000   0.00000   0.00010   0.00009  -1.04724
    D8        1.04707   0.00000   0.00000   0.00010   0.00009   1.04716
    D9        3.14146   0.00000   0.00000   0.00010   0.00009   3.14155
         Item               Value     Threshold  Converged?
 Maximum Force            0.000074     0.000450     YES
 RMS     Force            0.000027     0.000300     YES
 Maximum Displacement     0.000302     0.001800     YES
 RMS     Displacement     0.000145     0.001200     YES
 Predicted change in Energy=-5.024399D-08
 Optimization completed.
    -- Stationary point found.
                           ----------------------------
                           !   Optimized Parameters   !
                           ! (Angstroms and Degrees)  !
 --------------------------                            --------------------------
 ! Name  Definition              Value          Derivative Info.                !
 --------------------------------------------------------------------------------
 ! R1    R(1,2)                  1.0962         -DE/DX =    0.0                 !
 ! R2    R(1,3)                  1.0962         -DE/DX =    0.0                 !
 ! R3    R(1,4)                  1.0962         -DE/DX =    0.0                 !
 ! R4    R(1,5)                  1.5307         -DE/DX =   -0.0001              !
 ! R5    R(5,6)                  1.0962         -DE/DX =    0.0                 !
 ! R6    R(5,7)                  1.0962         -DE/DX =    0.0                 !
 ! R7    R(5,8)                  1.0962         -DE/DX =    0.0                 !
 ! A1    A(2,1,3)              107.543          -DE/DX =    0.0                 !
 ! A2    A(2,1,4)              107.543          -DE/DX =    0.0                 !
 ! A3    A(2,1,5)              111.3367         -DE/DX =    0.0                 !
 ! A4    A(3,1,4)              107.543          -DE/DX =    0.0                 !
 ! A5    A(3,1,5)              111.3367         -DE/DX =    0.0                 !
 ! A6    A(4,1,5)              111.3367         -DE/DX =    0.0                 !
 ! A7    A(1,5,6)              111.3367         -DE/DX =    0.0                 !
 ! A8    A(1,5,7)              111.3367         -DE/DX =    0.0                 !
 ! A9    A(1,5,8)              111.3367         -DE/DX =    0.0                 !
 ! A10   A(6,5,7)              107.543          -DE/DX =    0.0                 !
 ! A11   A(6,5,8)              107.543          -DE/DX =    0.0                 !
 ! A12   A(7,5,8)              107.543          -DE/DX =    0.0                 !
 ! D1    D(2,1,5,6)            179.9926         -DE/DX =    0.0                 !
 ! D2    D(2,1,5,7)            -60.0074         -DE/DX =    0.0                 !
 ! D3    D(2,1,5,8)             59.9926         -DE/DX =    0.0                 !
 ! D4    D(3,1,5,6)             59.9926         -DE/DX =    0.0                 !
 ! D5    D(3,1,5,7)            179.9926         -DE/DX =    0.0                 !
 ! D6    D(3,1,5,8)            -60.0074         -DE/DX =    0.0                 !
 ! D7    D(4,1,5,6)            -60.0074         -DE/DX =    0.0                 !
 ! D8    D(4,1,5,7)             59.9926         -DE/DX =    0.0                 !
 ! D9    D(4,1,5,8)            179.9926         -DE/DX =    0.0                 !
 --------------------------------------------------------------------------------
 GradGradGradGradGradGradGradGradGradGradGradGradGradGradGradGradGradGrad

                          Input orientation:                          
 ---------------------------------------------------------------------
 Center     Atomic      Atomic             Coordinates (Angstroms)
 Number     Number       Type             X           Y           Z
 ---------------------------------------------------------------------
      1          6           0       -1.191991    1.813003    0.766248
      2          1           0       -2.229867    2.160444    0.827376
      3          1           0       -0.548958    2.699563    0.719795
      4          1           0       -0.963743    1.287885    1.701016
      5          6           0       -0.978866    0.906126   -0.448378
      6          1           0        0.059042    0.558791   -0.509580
      7          1           0       -1.621803    0.019500   -0.401860
      8          1           0       -1.207240    1.431204   -1.383139
 ---------------------------------------------------------------------
                    Distance matrix (angstroms):
                    1          2          3          4          5
     1  C    0.000000
     2  H    1.096193   0.000000
     3  H    1.096193   1.768524   0.000000
     4  H    1.096193   1.768524   1.768524   0.000000
     5  C    1.530739   2.183086   2.183086   2.183086   0.000000
     6  H    2.183086   3.097070   2.542426   2.542518   1.096193
     7  H    2.183086   2.542518   3.097070   2.542426   1.096193
     8  H    2.183086   2.542426   2.542518   3.097070   1.096193
                    6          7          8
     6  H    0.000000
     7  H    1.768524   0.000000
     8  H    1.768524   1.768524   0.000000
 Stoichiometry    C2H6
 Framework group  D3[C3(C.C),X(H6)]
 Deg. of freedom     4
 Full point group                 D3      NOp   6
 Largest Abelian subgroup         C2      NOp   2
 Largest concise Abelian subgroup C2      NOp   2
                         Standard orientation:                         
 ---------------------------------------------------------------------
 Center     Atomic      Atomic             Coordinates (Angstroms)
 Number     Number       Type             X           Y           Z
 ---------------------------------------------------------------------
      1          6           0        0.000000    0.000000    0.765370
      2          1           0       -0.510471    0.884295    1.164217
      3          1           0        1.021058   -0.000066    1.164217
      4          1           0       -0.510586   -0.884229    1.164217
      5          6           0        0.000000    0.000000   -0.765370
      6          1           0        0.510586   -0.884229   -1.164217
      7          1           0       -1.021058   -0.000066   -1.164217
      8          1           0        0.510471    0.884295   -1.164217
 ---------------------------------------------------------------------
 Rotational constants (GHZ):          80.1641465          19.8911927          19.8911927

 **********************************************************************

            Population analysis using the SCF Density.

 **********************************************************************

 Orbital symmetries:
       Occupied  (A1) (A2) (A1) (A2) (E) (E) (A1) (E) (E)
       Virtual   (A1) (A2) (E) (E) (E) (E) (A2) (A1) (E) (E) (E)
                 (E) (A2) (E) (E) (A1) (E) (E) (A2) (A1) (A2) (E)
                 (E) (A1) (E) (E) (E) (E) (E) (E) (A2) (A1) (A2)
 The electronic state is 1-A1.
 Alpha  occ. eigenvalues --  -10.17238 -10.17217  -0.74738  -0.61193  -0.43009
 Alpha  occ. eigenvalues --   -0.43009  -0.36274  -0.34009  -0.34009
 Alpha virt. eigenvalues --    0.10475   0.15606   0.16370   0.16370   0.19019
 Alpha virt. eigenvalues --    0.19019   0.24243   0.51316   0.54379   0.54379
 Alpha virt. eigenvalues --    0.63675   0.63675   0.66840   0.88300   0.88300
 Alpha virt. eigenvalues --    0.90639   0.91966   0.91966   0.97926   1.06596
 Alpha virt. eigenvalues --    1.43934   1.52618   1.52618   1.93225   1.98109
 Alpha virt. eigenvalues --    1.98109   2.27059   2.27059   2.33281   2.33281
 Alpha virt. eigenvalues --    2.58715   4.14487   4.36590
          Condensed to atoms (all electrons):
               1          2          3          4          5          6
     1  C    5.012130   0.382762   0.382762   0.382762   0.376093  -0.034565
     2  H    0.382762   0.574843  -0.032350  -0.032350  -0.034565   0.004640
     3  H    0.382762  -0.032350   0.574843  -0.032350  -0.034565  -0.003627
     4  H    0.382762  -0.032350  -0.032350   0.574843  -0.034565  -0.003625
     5  C    0.376093  -0.034565  -0.034565  -0.034565   5.012130   0.382762
     6  H   -0.034565   0.004640  -0.003627  -0.003625   0.382762   0.574843
     7  H   -0.034565  -0.003625   0.004640  -0.003627   0.382762  -0.032350
     8  H   -0.034565  -0.003627  -0.003625   0.004640   0.382762  -0.032350
               7          8
     1  C   -0.034565  -0.034565
     2  H   -0.003625  -0.003627
     3  H    0.004640  -0.003625
     4  H   -0.003627   0.004640
     5  C    0.382762   0.382762
     6  H   -0.032350  -0.032350
     7  H    0.574843  -0.032350
     8  H   -0.032350   0.574843
 Mulliken charges:
               1
     1  C   -0.432816
     2  H    0.144272
     3  H    0.144272
     4  H    0.144272
     5  C   -0.432816
     6  H    0.144272
     7  H    0.144272
     8  H    0.144272
 Sum of Mulliken charges =   0.00000
 Mulliken charges with hydrogens summed into heavy atoms:
               1
     1  C    0.000000
     5  C    0.000000
 Electronic spatial extent (au):  <R**2>=            109.6863
 Charge=              0.0000 electrons
 Dipole moment (field-independent basis, Debye):
    X=              0.0000    Y=              0.0000    Z=              0.0000  Tot=              0.0000
 Quadrupole moment (field-independent basis, Debye-Ang):
   XX=            -14.7136   YY=            -14.7136   ZZ=            -15.2333
   XY=              0.0000   XZ=              0.0000   YZ=              0.0000
 Traceless Quadrupole moment (field-independent basis, Debye-Ang):
   XX=              0.1732   YY=              0.1732   ZZ=             -0.3465
   XY=              0.0000   XZ=              0.0000   YZ=              0.0000
 Octapole moment (field-independent basis, Debye-Ang**2):
  XXX=              0.0000  YYY=              0.0002  ZZZ=              0.0000  XYY=              0.0000
  XXY=             -0.0002  XXZ=              0.0000  XZZ=              0.0000  YZZ=              0.0000
  YYZ=              0.0000  XYZ=              0.0000
 Hexadecapole moment (field-independent basis, Debye-Ang**3):
 XXXX=            -28.6628 YYYY=            -28.6628 ZZZZ=            -92.7361 XXXY=              0.0000
 XXXZ=              1.1989 YYYX=              0.0000 YYYZ=              0.0000 ZZZX=              0.0000
 ZZZY=              0.0000 XXYY=             -9.5543 XXZZ=            -19.1605 YYZZ=            -19.1605
 XXYZ=              0.0000 YYXZ=             -1.1989 ZZXY=              0.0000
 N-N= 4.210696573075D+01 E-N=-2.680196209651D+02  KE= 7.897451612740D+01
 Symmetry A    KE= 4.073135620753D+01
 Symmetry B    KE= 3.824315991987D+01
 1|1|UNPC-GP76|FOpt|RB3LYP|6-31G(d)|C2H6|SOBEREVA|28-May-2021|0||# b3ly
 p/6-31G* opt||test||0,1|C,-1.1919909776,1.8130027221,0.7662476538|H,-2
 .2298669306,2.1604435683,0.8273758216|H,-0.5489584814,2.6995632905,0.7
 197949273|H,-0.9637426107,1.2878849055,1.701016208|C,-0.9788655135,0.9
 061263801,-0.4483781327|H,0.0590415565,0.5587914669,-0.5095799332|H,-1
 .6218029942,0.0195003407,-0.4018598515|H,-1.207240013,1.4312037349,-1.
 3831386089||Version=EM64W-G16RevB.01|State=1-A1|HF=-79.8304207|RMSD=3.
 436e-009|RMSF=4.388e-005|Dipole=0.,0.,0.|Quadrupole=0.1213117,-0.00682
 23,-0.1144894,0.0318732,0.0426894,-0.1816489|PG=D03 [C3(C1.C1),X(H6)]|
 |@


0EVERYBODY IS IGNORANT, ONLY ON DIFFERENT SUBJECTS.
0          WILL ROGERS
 Job cpu time:       0 days  0 hours  0 minutes  6.0 seconds.
 Elapsed time:       0 days  0 hours  0 minutes  3.8 seconds.
 File lengths (MBytes):  RWF=      6 Int=      0 D2E=      0 Chk=      1 Scr=      1
 Normal termination of Gaussian 16 at Fri May 28 08:36:20 2021.
