Title Card Required                                                     
SP        UB3LYP                                                      6-31G(d)            
Number of atoms                            I                3
Info1-9                                    I   N=           9
          11          10           0           0           0         110
           1          18        -502
Full Title                                 C   N=           2
Title Card Required     
Route                                      C   N=           2
# b3lyp/6-31g(d) nosymm 
Charge                                     I                0
Multiplicity                               I                3
Number of electrons                        I                8
Number of alpha electrons                  I                5
Number of beta electrons                   I                3
Number of basis functions                  I               19
Number of independent functions            I               19
Number of point charges in /Mol/           I                0
Number of translation vectors              I                0
Atomic numbers                             I   N=           3
           6           1           1
Nuclear charges                            R   N=           3
  6.00000000E+00  1.00000000E+00  1.00000000E+00
Current cartesian coordinates              R   N=           9
  0.00000000E+00  0.00000000E+00  1.25747479E+00  0.00000000E+00  1.74546443E+00
  2.34240246E+00  0.00000000E+00 -1.74546443E+00  2.34240246E+00
Number of symbols in /Mol/                 I                0
Force Field                                I                0
Atom Types                                 C   N=           3
                                    
Int Atom Types                             I   N=           3
           0           0           0
MM charges                                 R   N=           3
  0.00000000E+00  0.00000000E+00  0.00000000E+00
Integer atomic weights                     I   N=           3
          12           1           1
Real atomic weights                        R   N=           3
  1.20000000E+01  1.00782504E+00  1.00782504E+00
Atom fragment info                         I   N=           3
           0           0           0
Atom residue num                           I   N=           3
           0           0           0
Nuclear spins                              I   N=           3
           0           1           1
Nuclear ZEff                               R   N=           3
 -3.60000000E+00 -1.00000000E+00 -1.00000000E+00
Nuclear ZNuc                               R   N=           3
  6.00000000E+00  1.00000000E+00  1.00000000E+00
Nuclear QMom                               R   N=           3
  0.00000000E+00  0.00000000E+00  0.00000000E+00
Nuclear GFac                               R   N=           3
  0.00000000E+00  2.79284600E+00  2.79284600E+00
MicOpt                                     I   N=           3
          -1          -1          -1
Number of residues                         I                0
Number of secondary structures             I                0
Number of contracted shells                I                8
Number of primitive shells                 I               19
Pure/Cartesian d shells                    I                1
Pure/Cartesian f shells                    I                0
Highest angular momentum                   I                2
Largest degree of contraction              I                6
Shell types                                I   N=           8
           0          -1          -1           2           0           0
           0           0
Number of primitives per shell             I   N=           8
           6           3           1           1           3           1
           3           1
Shell to atom map                          I   N=           8
           1           1           1           1           2           2
           3           3
Primitive exponents                        R   N=          19
  3.04752488E+03  4.57369518E+02  1.03948685E+02  2.92101553E+01  9.28666296E+00
  3.16392696E+00  7.86827235E+00  1.88128854E+00  5.44249258E-01  1.68714478E-01
  8.00000000E-01  1.87311370E+01  2.82539436E+00  6.40121692E-01  1.61277759E-01
  1.87311370E+01  2.82539436E+00  6.40121692E-01  1.61277759E-01
Contraction coefficients                   R   N=          19
  1.83473713E-03  1.40373228E-02  6.88426223E-02  2.32184443E-01  4.67941348E-01
  3.62311985E-01 -1.19332420E-01 -1.60854152E-01  1.14345644E+00  1.00000000E+00
  1.00000000E+00  3.34946043E-02  2.34726953E-01  8.13757326E-01  1.00000000E+00
  3.34946043E-02  2.34726953E-01  8.13757326E-01  1.00000000E+00
P(S=P) Contraction coefficients            R   N=          19
  0.00000000E+00  0.00000000E+00  0.00000000E+00  0.00000000E+00  0.00000000E+00
  0.00000000E+00  6.89990666E-02  3.16423961E-01  7.44308291E-01  1.00000000E+00
  0.00000000E+00  0.00000000E+00  0.00000000E+00  0.00000000E+00  0.00000000E+00
  0.00000000E+00  0.00000000E+00  0.00000000E+00  0.00000000E+00
Coordinates of each shell                  R   N=          24
  0.00000000E+00  0.00000000E+00  1.25747479E+00  0.00000000E+00  0.00000000E+00
  1.25747479E+00  0.00000000E+00  0.00000000E+00  1.25747479E+00  0.00000000E+00
  0.00000000E+00  1.25747479E+00  0.00000000E+00  1.74546443E+00  2.34240246E+00
  0.00000000E+00  1.74546443E+00  2.34240246E+00  0.00000000E+00 -1.74546443E+00
  2.34240246E+00  0.00000000E+00 -1.74546443E+00  2.34240246E+00
Num ILSW                                   I              100
ILSW                                       I   N=         100
           1           1           0           0           2           0
           0           0           0           0         402          -1
           5           0           0           0           0           0
           0           0           1           0           0           0
           1           1           0           0           0           0
           0           0      100000           0          -1           0
           0           0           0           0           0           0
           0           0           0           1           0           0
           0 -2000000000           1           0           0           0
           0           0           4          52           0           0
           0           0           5           0           0           0
           0           0           0           0           0           1
           0           0           0           0           0           0
           0           0           0           0           0           0
           0           0           0           0           0           0
           0           0           0           0           0           0
           0           0           0           0
Num RLSW                                   I               52
RLSW                                       R   N=          52
  8.00000000E-01  7.20000000E-01  1.00000000E+00  8.10000000E-01  2.00000000E-01
  0.00000000E+00  0.00000000E+00  1.00000000E+00  0.00000000E+00  0.00000000E+00
  0.00000000E+00  0.00000000E+00  1.00000000E+00  0.00000000E+00  0.00000000E+00
  0.00000000E+00  0.00000000E+00  1.00000000E+00  0.00000000E+00  0.00000000E+00
  0.00000000E+00  0.00000000E+00  1.00000000E+00  0.00000000E+00  0.00000000E+00
  0.00000000E+00  0.00000000E+00  1.00000000E+00  0.00000000E+00  0.00000000E+00
  0.00000000E+00  0.00000000E+00  1.00000000E+00  0.00000000E+00  0.00000000E+00
  0.00000000E+00  0.00000000E+00  0.00000000E+00  1.00000000E+00  1.00000000E+00
  0.00000000E+00  1.00000000E+00  0.00000000E+00  0.00000000E+00  0.00000000E+00
  0.00000000E+00  0.00000000E+00  0.00000000E+00  0.00000000E+00  0.00000000E+00
  0.00000000E+00  0.00000000E+00
MxBond                                     I                2
NBond                                      I   N=           3
           2           1           1
IBond                                      I   N=           6
           2           3           1           0           1           0
RBond                                      R   N=           6
  1.00000000E+00  1.00000000E+00  1.00000000E+00  0.00000000E+00  1.00000000E+00
  0.00000000E+00
Virial Ratio                               R      2.008820358166969E+00
SCF Energy                                 R     -3.914559088385914E+01
Total Energy                               R     -3.914559088385914E+01
S**2                                       R      2.003983753756497E+00
S**2 after annihilation                    R      2.000005477223819E+00
RMS Density                                R      1.623622055630492E-09
Job Status                                 I                1
Nuclear derivative order                   I                0
External E-field                           R   N=          35
  0.00000000E+00  0.00000000E+00  0.00000000E+00  0.00000000E+00  0.00000000E+00
  0.00000000E+00  0.00000000E+00  0.00000000E+00  0.00000000E+00  0.00000000E+00
  0.00000000E+00  0.00000000E+00  0.00000000E+00  0.00000000E+00  0.00000000E+00
  0.00000000E+00  0.00000000E+00  0.00000000E+00  0.00000000E+00  0.00000000E+00
  0.00000000E+00  0.00000000E+00  0.00000000E+00  0.00000000E+00  0.00000000E+00
  0.00000000E+00  0.00000000E+00  0.00000000E+00  0.00000000E+00  0.00000000E+00
  0.00000000E+00  0.00000000E+00  0.00000000E+00  0.00000000E+00  0.00000000E+00
IOpCl                                      I                1
IROHF                                      I                0
Alpha Orbital Energies                     R   N=          19
 -1.02277201E+01 -6.77350322E-01 -4.29389784E-01 -2.98767800E-01 -2.38620821E-01
  1.22771531E-01  1.70608169E-01  5.23899007E-01  5.25509678E-01  5.43354017E-01
  6.68990449E-01  8.82625695E-01  9.19731526E-01  1.63123718E+00  1.63502444E+00
  1.63923621E+00  2.02205820E+00  2.18859681E+00  3.96250912E+00
Beta Orbital Energies                      R   N=          19
 -1.01988602E+01 -6.04654281E-01 -4.06530757E-01 -9.03211108E-02 -3.83581133E-02
  1.43605391E-01  1.94921585E-01  5.61855473E-01  6.03504382E-01  6.16021980E-01
  7.10699639E-01  9.11899718E-01  9.58072498E-01  1.72020497E+00  1.75898650E+00
  1.78564404E+00  2.10482959E+00  2.24990743E+00  4.03549600E+00
Alpha MO coefficients                      R   N=         361
  9.92305426E-01  5.08721536E-02  1.62089432E-17 -4.36401434E-16  1.83477921E-04
 -8.93806940E-03 -3.22819127E-17  3.27302728E-16 -1.28561826E-03 -1.03267910E-02
 -1.06983627E-02 -1.03824686E-02 -7.31306608E-18 -7.42285133E-17 -9.46175151E-16
 -3.10924129E-04  2.26354420E-03 -3.10924129E-04  2.26354420E-03 -2.06432497E-01
  4.21939616E-01 -9.38202689E-17 -2.77146784E-15  8.30901752E-02  4.20254964E-01
 -6.17819113E-17 -3.23657340E-15  3.13858117E-02 -1.15420161E-02  3.50973007E-03
 -6.82164325E-04 -1.53740537E-16 -2.87732969E-16 -1.89587391E-16  1.68768542E-01
  4.81976270E-02  1.68768542E-01  4.81976270E-02 -1.21298669E-15 -1.03688128E-15
  2.10947631E-15  4.69428382E-01 -7.26534809E-16  1.32350073E-14  1.38967900E-15
  1.70287433E-01  2.64088884E-15 -2.82552205E-16 -3.54300240E-16  2.72264271E-16
 -8.80185909E-17 -4.19199031E-17  2.71044654E-02  2.46293999E-01  2.03353014E-01
 -2.46293999E-01 -2.03353014E-01  7.90664211E-02 -1.70498756E-01  1.67475784E-15
  1.92812571E-15  5.56718825E-01 -3.78084337E-01  1.00802184E-15  4.95833857E-15
  3.70515584E-01 -3.36917200E-03  1.80912634E-02  9.62918140E-03  8.77386283E-18
  4.44400262E-17 -7.10152476E-16  1.21992372E-01  1.27791710E-01  1.21992372E-01
  1.27791710E-01 -1.90063610E-16  4.12001842E-16  6.23871602E-01 -1.09207748E-15
 -9.25250693E-16  4.86554012E-16  5.03100115E-01 -5.57924329E-16 -1.09175945E-15
  8.90621804E-17 -2.76312683E-17 -5.10100926E-17 -6.35705184E-16  4.13331439E-03
 -1.55189721E-16 -1.04008268E-15  5.64237657E-16  4.04089814E-16 -5.67663823E-16
 -1.23379679E-01  2.10898460E-01  5.52835812E-17 -4.42612731E-14  2.49510591E-01
  1.82596480E+00 -1.03414405E-16 -1.45711588E-13  7.73897530E-01  3.62766967E-05
 -1.92666873E-02 -6.73084708E-04 -8.39946164E-17 -1.23768781E-16  4.59350909E-16
 -7.85266263E-02 -1.40555216E+00 -7.85266263E-02 -1.40555216E+00  1.40937910E-14
 -5.89371272E-14  4.47803777E-16 -4.41859463E-01 -2.57810797E-14 -1.34311517E-13
 -2.05218743E-16 -1.32623706E+00 -6.77283975E-14  8.65730263E-17  4.56538570E-15
 -1.92605669E-16  1.62867377E-17  5.33882956E-17  1.59366730E-02  8.36636173E-02
  1.55274843E+00 -8.36636173E-02 -1.55274843E+00 -3.38094619E-02  2.73442978E-01
 -2.00691345E-13 -2.40360717E-14 -9.74170140E-01  2.46020330E-02  2.13316599E-13
  4.70203239E-14  1.23242717E+00  3.74357921E-02 -2.06596794E-02  2.56772118E-02
 -1.75017003E-16  6.65813258E-16 -1.54457478E-15 -1.38088544E-01 -1.52674159E-01
 -1.38088544E-01 -1.52674159E-01  6.44771314E-15 -5.35188420E-14 -1.04471431E+00
 -2.14949671E-14  1.87996194E-13 -2.58978634E-15  1.10792137E+00  4.77591649E-14
 -2.37216581E-13 -7.21614408E-15  3.75665219E-15 -4.75792581E-15  1.11212092E-16
  4.39782039E-03 -4.76949391E-15  1.44188961E-14  1.87217650E-14  3.78222140E-14
  3.89006725E-14  1.68310170E-15  3.49978990E-14  3.16348324E-14 -7.29982760E-01
  2.39965215E-14 -8.02706175E-14 -3.42601219E-14  1.66563718E+00 -5.25901902E-14
 -8.12508324E-16  6.70406531E-15  1.52822201E-15  7.09696580E-17 -4.02579219E-16
 -1.08706755E-01 -3.99416256E-01 -3.86641348E-01  3.99416256E-01  3.86641348E-01
 -4.58888183E-02 -9.84266637E-01  1.14019613E-15 -6.34025943E-16  1.47669225E-01
  1.99556252E+00 -9.94519466E-16  4.09304183E-14  4.76532296E-01  4.72548754E-02
 -2.46693391E-01 -5.75416119E-02 -2.94101494E-16 -1.88572298E-16 -8.84113692E-15
 -6.33177762E-01 -2.09509996E-01 -6.33177762E-01 -2.09509996E-01  6.44691000E-15
 -2.28104379E-13  8.60271497E-16  8.53834102E-01 -8.19102813E-14  4.50381652E-13
 -5.32217428E-16 -1.26069229E+00  1.33694796E-13 -2.34231769E-14  1.68835950E-14
 -1.21177208E-14 -1.03384241E-15  9.65532914E-18 -2.08361568E-01 -7.32932622E-01
  1.41553707E+00  7.32932622E-01 -1.41553707E+00  2.50592417E-02 -1.48361671E+00
 -8.24179224E-17 -1.40523990E-13 -4.47379670E-01  3.05407135E+00 -1.23072871E-16
  2.33068098E-13  8.56375122E-01 -1.58554843E-01  2.80347302E-02 -8.76133087E-02
  4.51761578E-16  4.15448006E-17  3.10995564E-14  5.64506932E-01 -1.47417548E+00
  5.64506932E-01 -1.47417548E+00  2.72868954E-03  2.24986779E-03  2.50199500E-16
  3.02308351E-15  1.35915308E-03 -3.50954977E-02 -4.52604631E-16 -2.84299064E-15
 -2.32280674E-02 -5.89476693E-01 -4.00844347E-01  9.95832671E-01  7.98435339E-15
 -5.46541891E-14  3.37642961E-15  1.61299178E-02  9.55587776E-03  1.61299178E-02
  9.55587776E-03 -2.27164453E-16  7.33761357E-16 -2.54266567E-15  1.53360879E-15
  1.05595476E-16  9.38104384E-16  6.68299598E-15 -6.17721745E-15  1.02160578E-15
  2.28247802E-15  5.59439092E-15 -8.17777712E-15  1.00000000E+00 -9.41873013E-13
 -2.94477697E-15 -1.68967382E-15  4.17709841E-15 -3.40727544E-15 -3.50737140E-15
  9.42429514E-17 -3.31373766E-16  2.01584512E-03 -4.15202373E-16  2.04038191E-16
 -7.46443742E-16 -6.95203676E-03  1.02406303E-15 -3.02302545E-16 -3.37463572E-14
 -2.05954295E-14  5.45165363E-14  9.44163152E-13  9.99981787E-01  6.90535803E-16
 -1.47444576E-15  8.18125632E-16  4.26880349E-16  4.35640191E-17 -4.93861991E-02
 -1.41493839E-01 -1.21691375E-16 -2.23342102E-15  5.89863480E-02  7.85648938E-01
  6.28394684E-17  6.46869820E-15  3.59817286E-01 -8.94692689E-01  9.59628041E-01
 -1.46424795E-01 -3.07277017E-15 -1.91234238E-15 -3.76169666E-15 -5.57469627E-01
 -1.15370291E-01 -5.57469627E-01 -1.15370291E-01  4.64644951E-17 -9.04902767E-15
 -2.23175516E-15  1.49546286E-01  4.24556598E-17  1.20058456E-14  2.39332716E-15
  5.08894186E-01  2.94923556E-15  8.09570471E-16  7.84624993E-15 -3.12762317E-15
  2.93108322E-15 -1.07746749E-15  1.12259468E+00 -6.74781624E-01  2.28321934E-02
  6.74781624E-01 -2.28321934E-02 -4.56792430E-01  3.10728336E+00 -3.83271257E-16
  4.01718014E-16 -7.35188729E-02  1.49067737E+00  2.05336299E-16 -1.56265903E-15
  2.33794017E-01 -1.78689712E+00 -1.83955036E+00 -1.80648056E+00 -2.74478765E-17
  6.11701672E-18  1.34700088E-15  1.87672118E-01 -4.73642799E-01  1.87672118E-01
 -4.73642799E-01
Beta MO coefficients                       R   N=         361
  9.93203979E-01  4.51953573E-02  2.58667074E-17 -2.04530864E-16  8.69080455E-04
 -9.07901143E-03 -2.60885986E-17  6.83698356E-16 -1.41322473E-03 -9.18433398E-03
 -8.08644931E-03 -8.88724361E-03  5.88188760E-17 -7.67936868E-17 -2.75848239E-16
 -5.38289181E-04  2.36929397E-03 -5.38289181E-04  2.36929397E-03 -1.88197177E-01
  3.68752180E-01  2.08397445E-17 -2.09302967E-15  1.46933777E-01  3.40186865E-01
 -3.73451136E-17 -1.95770544E-15  3.97809786E-02 -2.80463145E-02  2.44373613E-02
 -5.90985396E-03 -1.17351710E-16 -3.19427935E-16 -3.37931857E-16  1.97082961E-01
  9.63857834E-02  1.97082961E-01  9.63857834E-02 -1.39819771E-15 -9.78740884E-16
  1.07775121E-15  4.40972079E-01  8.13032730E-16  1.44795334E-14  1.05427428E-15
  1.46570385E-01  3.79921618E-15 -5.22017877E-16 -2.48756375E-16  3.97262757E-16
  1.78402708E-16 -3.95929640E-17  3.44840072E-02  2.56769975E-01  2.35927709E-01
 -2.56769975E-01 -2.35927709E-01 -1.04171717E-01  1.66111732E-01 -5.77843746E-16
 -2.99062769E-15 -4.34523056E-01  5.58243615E-01 -5.58155143E-16 -1.49480926E-14
 -4.34391112E-01 -4.83208078E-03  3.94656538E-03 -3.55928239E-02  4.74330066E-17
 -2.13884845E-17  1.22207725E-16 -1.07209437E-01 -1.70190607E-01 -1.07209437E-01
 -1.70190607E-01 -6.62730928E-17  1.07175223E-16  5.08568784E-01 -5.03212103E-16
 -2.81969803E-16  3.59847117E-16  6.18436532E-01 -2.99492682E-16 -2.43306265E-16
 -6.24674748E-19  3.07945335E-18 -1.60957690E-17 -3.53028872E-16  2.23302626E-02
 -3.75746038E-18 -5.53813954E-17  2.14317013E-16 -1.16367408E-16 -4.37653990E-16
 -1.25875043E-01  1.92847431E-01  1.28160290E-16 -4.03968131E-14  2.53856145E-01
  1.88226052E+00 -2.10221736E-16 -1.35081090E-13  8.13652101E-01 -2.00019800E-02
 -5.63080403E-03  5.67249889E-03  2.23200480E-16 -2.66453663E-16 -1.70156095E-15
 -4.82296608E-02 -1.43565671E+00 -4.82296608E-02 -1.43565671E+00  1.37704897E-14
 -5.50802617E-14  1.12041111E-16 -4.43151705E-01 -2.26403938E-14 -1.25839411E-13
  3.00401323E-17 -1.34913888E+00 -5.96324563E-14  1.83503666E-15  2.68616791E-15
 -1.96727925E-16 -3.10456280E-16 -1.23721866E-16 -4.89024945E-03  5.19708527E-02
  1.58289160E+00 -5.19708527E-02 -1.58289160E+00 -3.20113587E-17  3.46109334E-14
 -4.91950156E-15 -7.15381645E-01 -7.05511852E-15 -5.93823371E-14  5.39899679E-15
  1.68007176E+00 -8.67762847E-15  1.21681221E-15  4.42158268E-15  1.58147384E-15
 -6.88209002E-16  1.34789836E-16 -1.04169324E-01 -4.10451623E-01 -4.01015402E-01
  4.10451623E-01  4.01015402E-01 -5.37396976E-02  4.45753606E-02 -3.21831201E-14
  1.28284167E-16 -9.69045894E-01  5.56160743E-01  3.12269359E-14  2.01996970E-15
  1.28826903E+00  4.35703587E-02 -4.70505875E-02  1.31617673E-03 -5.59929812E-16
 -1.65534576E-16  7.40391734E-16 -2.74724344E-01 -2.29547810E-01 -2.74724344E-01
 -2.29547810E-01 -1.22203417E-15  8.77844147E-15  1.10513475E+00 -2.50328112E-15
 -3.19082787E-14  8.57798780E-16 -1.04794277E+00  6.98338322E-15  3.64274146E-14
  1.23887420E-15  5.47010237E-16  1.06128549E-16  1.77273368E-16  1.33605918E-02
 -7.56673163E-16 -6.89899359E-15 -4.51027852E-15 -3.88154307E-16 -4.90218695E-15
 -4.16896048E-02 -9.31262397E-01  9.79121476E-15  2.99143601E-15  3.96366754E-01
  1.82325971E+00 -9.27905092E-15  2.91960997E-14  1.96899545E-01  1.70450330E-02
 -2.51373872E-01 -4.32531215E-02 -3.43078705E-16 -1.45757777E-16 -6.29361855E-15
 -6.13222361E-01 -1.22788948E-01 -6.13222361E-01 -1.22788948E-01  5.52075879E-15
 -1.73896820E-13 -1.51196404E-15  8.83587748E-01 -5.80595709E-14  3.30247488E-13
  1.55241977E-15 -1.21848487E+00  9.49649497E-14 -1.37768094E-14  9.03113597E-15
 -9.40794835E-15 -1.56191760E-15 -7.63786947E-16 -1.83173304E-01 -7.42239495E-01
  1.37258859E+00  7.42239495E-01 -1.37258859E+00  3.01392977E-02 -1.52937352E+00
  2.80220458E-16 -1.05937237E-13 -4.20340901E-01  3.06283989E+00 -5.25462026E-16
  1.75152757E-13  8.17252837E-01 -1.36825505E-01 -1.03408294E-02 -1.03066089E-01
  4.29784275E-16  8.56070300E-16  1.91296491E-14  5.53149687E-01 -1.43843663E+00
  5.53149687E-01 -1.43843663E+00 -4.98852443E-17  1.53632326E-16  1.15479136E-16
  1.00336036E-15 -1.45078435E-16 -4.70467102E-16  1.10245957E-15 -2.71823479E-15
  8.02484331E-16  6.20084671E-15  3.58150254E-15 -9.93041668E-15  1.00000000E+00
 -1.02406659E-14 -5.30642460E-16 -3.42652719E-15  6.91271959E-15  1.98962006E-15
 -5.19142728E-15  4.73645618E-03  3.39611780E-02  1.77162254E-15  7.86580564E-16
 -3.99983966E-02 -1.12117180E-01 -6.44300321E-16 -2.69461867E-15 -4.77703792E-02
 -5.19540933E-01 -4.73904534E-01  1.00201207E+00  1.01965333E-14 -4.13825624E-14
 -2.16193594E-15  7.40415092E-02  1.58594184E-02  7.40415092E-02  1.58594184E-02
  3.89822340E-16  1.92631710E-15 -2.61305773E-02  1.04426496E-15 -1.25530571E-16
 -6.62778246E-15  1.91350196E-04 -6.70988360E-15 -2.99667716E-15 -2.38041384E-14
 -1.76461706E-14  4.18146829E-14  9.80506328E-15  9.99661370E-01 -3.59086340E-15
  2.15432248E-15  7.12607600E-15 -6.36631178E-16 -1.49289809E-15  4.11781261E-02
  1.90548516E-01 -2.46661582E-18  7.91681492E-16 -6.08780074E-02 -7.99692347E-01
  6.20099868E-18 -1.14627594E-14 -3.53900900E-01  9.39633298E-01 -9.30867139E-01
  6.45553377E-02 -1.39259195E-15  3.17852969E-15 -8.24347139E-15  5.32961201E-01
  1.28018155E-01  5.32961201E-01  1.28018155E-01  6.16573781E-16 -5.55857372E-15
 -9.54447721E-16  1.28593834E-01 -4.19402471E-16  4.44950074E-16  8.33949306E-16
  5.11432328E-01 -1.27150169E-15  7.78021281E-15 -5.64865110E-15  4.46219001E-15
 -1.66707099E-17  3.32645468E-15  1.12730758E+00 -6.57032995E-01  1.08477988E-02
  6.57032995E-01 -1.08477988E-02 -4.55982513E-01  3.11858762E+00 -4.00102605E-16
  3.65339773E-16 -7.71449573E-02  1.47227849E+00  2.10409772E-16 -1.45829663E-15
  2.34617127E-01 -1.78744130E+00 -1.83605143E+00 -1.80727395E+00 -2.84928136E-17
  9.56207302E-18  1.37552350E-15  1.86424337E-01 -4.68499480E-01  1.86424337E-01
 -4.68499480E-01
Orthonormal basis                          R   N=         361
  4.11678859E-02  1.90317339E-01 -3.22581207E-18  3.14000954E-18  3.05802219E-02
  2.02868847E-01 -4.16187515E-19  5.88816241E-18  4.67182827E-02  1.37919349E-01
  1.55331462E-01  1.44646498E-01  0.00000000E+00 -6.21268806E-52  7.07865823E-19
  1.03959635E-01  1.55314032E-01  1.03959635E-01  1.55314032E-01 -1.94515426E-17
 -7.96840019E-17 -1.54839648E-15  2.78191351E-01  5.53087254E-17 -4.22428224E-17
 -1.64988637E-15  3.52854470E-01  4.70209632E-18 -4.36612628E-17 -3.86866233E-17
  8.21193507E-17 -8.08175296E-27  0.00000000E+00  9.40912065E-02  2.33051361E-01
  1.89233373E-01 -2.33051361E-01 -1.89233373E-01 -5.74589628E-02 -1.62213320E-01
 -4.07348499E-16  5.02291527E-17  4.14260064E-01 -9.48604054E-02 -3.44896108E-16
 -2.81956817E-17  4.57033627E-01 -1.50058569E-01 -7.18403137E-02 -1.19839040E-01
  0.00000000E+00 -6.73901562E-41  1.18127229E-17  1.64575914E-01  1.07628834E-01
  1.64575914E-01  1.07628834E-01 -2.69362174E-17 -2.38481498E-16  5.64376813E-01
  1.19585891E-15  3.02652197E-16 -8.34160232E-17  5.64376813E-01  1.59036657E-15
  4.30381292E-16 -2.08575771E-16  2.39361703E-17 -1.44025646E-16  8.45073488E-23
  0.00000000E+00  4.80045682E-16  1.35919758E-15  8.51244026E-16 -7.23193295E-16
 -7.43778775E-16 -1.23208042E-16  5.96029245E-17 -7.16785145E-17 -2.58910913E-01
 -1.43695651E-16 -4.19181598E-17 -5.10727298E-17 -2.23207791E-01 -1.38425060E-16
 -3.52686460E-16  3.39531135E-16 -4.19733328E-17 -4.11696182E-19  0.00000000E+00
  8.44343921E-01  1.84855650E-01 -3.91590986E-02 -1.84855650E-01  3.91590986E-02
 -1.65766549E-19  5.06797455E-18  2.61835840E-16  7.23647083E-17  8.12443758E-18
 -3.46710067E-18 -2.61835626E-16 -1.08127361E-16 -2.43083863E-18 -2.51114510E-16
 -1.45446530E-16  4.05950777E-16  9.99999007E-01 -1.40954596E-03 -1.11472972E-16
  2.03859755E-16 -1.81623724E-16 -2.03252427E-16  1.69093696E-16 -4.04541936E-31
 -8.02710165E-31  1.16349425E-17 -2.62921756E-16 -4.93319840E-30  7.50223495E-30
 -1.16349346E-17  2.46845681E-16  6.79393054E-30 -7.77238814E-17 -4.89341961E-17
  1.26658078E-16  1.40954596E-03  9.99999007E-01 -1.32349722E-16  2.11193641E-16
 -2.64073477E-16 -2.11193641E-16  2.64073477E-16  9.71081640E-01  6.29683171E-02
  4.19673534E-17 -3.29190828E-17  1.37007136E-01 -1.47103975E-02  7.46948977E-17
 -1.61637912E-16  8.37016677E-02  2.54156860E-02 -1.37709638E-01 -3.76075871E-02
 -5.43586424E-33  0.00000000E+00  2.03877747E-16 -9.50545430E-02 -4.50325199E-02
 -9.50545430E-02 -4.50325199E-02 -2.29732515E-01  2.21275053E-01  2.41594332E-16
  9.27684255E-16  4.16929684E-01 -2.57259888E-02  2.34941389E-16 -2.95381827E-16
  1.84805593E-01  6.35162184E-01 -3.83108720E-01  2.41754443E-01 -1.15282499E-28
  1.62610551E-31  5.83762391E-16 -3.38443692E-01 -1.33638162E-01 -3.38443692E-01
 -1.33638162E-01 -6.42251642E-17 -2.95128848E-16 -1.38807916E-16  1.01652305E-15
 -8.74971353E-16 -9.89678549E-18  1.97637914E-16 -5.92502555E-16  3.54476198E-16
 -6.08434300E-01 -3.83064289E-01  9.91498589E-01 -2.71947991E-16 -1.35973996E-16
 -7.79947262E-17  5.77115251E-17  9.87758159E-17  1.99600141E-16  7.34495597E-16
 -9.42609659E-03  3.44917059E-01  1.07060105E-16  4.94512047E-16  5.70546809E-01
 -2.35588592E-01 -5.12193982E-16  3.31246243E-16 -1.69197511E-01 -2.19728158E-01
  7.47884629E-01  1.54107880E-01 -2.20318907E-17  3.10549934E-20 -3.27944482E-16
  3.74049507E-02 -4.60159687E-01  3.74049507E-02 -4.60159687E-01  7.46528826E-17
 -2.50743495E-16 -6.06945033E-16  1.09534183E+00 -5.19778457E-16  3.53112095E-16
  3.74075587E-16 -3.89099280E-01 -2.96112208E-17 -3.00536993E-16  3.63147995E-16
 -6.47842058E-16  0.00000000E+00  0.00000000E+00  2.43300791E-01 -1.03109134E-01
 -3.75864517E-01  1.03109134E-01  3.75864517E-01  6.26422055E-17 -2.37819248E-16
  1.07801978E+00  5.37935650E-16 -3.47687376E-16  1.37462255E-16 -1.07801978E+00
 -4.43135608E-16  6.61515077E-16 -9.86983313E-17 -5.33183864E-16  2.58640363E-16
 -1.37522996E-16  8.46295360E-17  1.14020057E-16 -1.25431800E-16  6.77810880E-17
  1.70771576E-16  2.79354928E-16  7.73577904E-03  3.42910988E-01  3.67438821E-16
  5.57312119E-16 -8.54787825E-01 -4.46762625E-01  2.94233453E-16  7.33895090E-17
  1.11407377E+00  2.54193553E-02  3.82438585E-01  1.63353306E-01 -4.34942612E-20
  6.13072180E-23  6.97278235E-16 -1.61827416E-01 -1.73024215E-01 -1.61827416E-01
 -1.73024215E-01  9.30777689E-02  5.52398209E-02 -1.62205611E-16  2.17530241E-16
 -2.56500508E-01 -3.83260958E-01 -4.73788210E-17  7.87213067E-16 -1.03250830E-01
  6.22540844E-01 -5.25800235E-01  1.78880647E-01  6.33615105E-19 -8.93110499E-22
  7.95085379E-16  9.54210326E-01 -4.90573640E-01  9.54210326E-01 -4.90573640E-01
  9.18991783E-17  8.45618410E-16  2.26273775E-16 -1.24919191E-01 -1.54266929E-15
 -8.86506482E-16 -2.16371268E-16 -7.39322483E-01  1.63354993E-15  5.08179303E-16
  1.59739831E-16  6.55476082E-17 -4.87099069E-16 -2.43549534E-16 -7.15859101E-01
  1.03435461E+00 -3.14782669E-01 -1.03435461E+00  3.14782669E-01  8.92164625E-16
 -5.18702921E-15  2.52281472E-17 -5.83155695E-01 -8.19939182E-16 -3.75293922E-15
 -3.96611962E-16  2.35334743E+00  1.89123983E-16  2.62891889E-15  3.87374147E-15
  3.78281760E-15 -1.20695569E-15 -2.25824212E-16  1.51722831E-01  2.25185795E-01
 -2.08048870E+00 -2.25185795E-01  2.08048870E+00 -3.90052120E-01  3.55532036E+00
 -2.52502831E-16 -1.47736880E-15  5.34405152E-02 -8.32317205E-01  2.01912099E-16
  5.52301382E-15 -4.11707083E-01 -1.38696659E+00 -1.57927768E+00 -1.46126575E+00
 -2.56631875E-18  3.61734785E-21  6.57907468E-16  1.30848814E-01  4.72049402E-01
  1.30848814E-01  4.72049402E-01 -3.19398414E-01  4.22733188E-01 -3.19055743E-16
 -1.59433276E-15 -2.62605663E-01  4.31958782E+00  6.54072509E-17  5.07799647E-15
  1.30346409E+00 -1.09271031E+00 -8.42891111E-01 -9.96192962E-01 -2.73760753E-19
  3.85878810E-22  2.13338648E-16  1.33180828E-01 -1.92655161E+00  1.33180828E-01
 -1.92655161E+00
Total SCF Density                          R   N=         190
  2.05540825E+00 -7.46119717E-02  3.47711632E-01  7.10625296E-17 -5.84160268E-17
  3.89215775E-01 -7.03687610E-16 -3.21972780E-15  7.84190119E-16  4.14819381E-01
  2.57970953E-04 -5.63006748E-03  3.50423556E-16  5.52816224E-16  3.38430151E-01
 -1.98556870E-01  3.66364747E-01 -3.62371222E-16  9.99797709E-15 -1.25592199E-01
  4.35451421E-01 -5.40831228E-17 -7.24895774E-18  3.13869875E-01  5.67835982E-16
  8.50416792E-17 -1.74474965E-16  2.53109726E-01  2.02095209E-15 -3.20540894E-15
  1.69110571E-16  1.44571202E-01  2.19992093E-15  4.66051580E-16  1.10478463E-16
  5.04806877E-02  1.26502754E-02 -3.53894796E-02 -6.27668360E-17  3.46005961E-15
  2.14724558E-01 -1.13338808E-01 -1.79122836E-16  2.66285554E-15  1.39853043E-01
 -1.19747518E-02 -1.55781692E-02  5.00142601E-17 -2.72254319E-16 -6.96553720E-03
 -1.29420599E-02  4.37444498E-17 -5.87292426E-17 -2.70004027E-03  1.12215982E-03
 -2.25406903E-02  6.49796780E-03  1.28575271E-17 -2.95683491E-16  1.39450541E-02
  3.11726715E-03  3.76196824E-18 -7.53215364E-17  7.81057489E-03 -6.02091453E-04
  1.11664227E-03 -1.71150420E-02 -5.03870782E-03 -1.61545327E-17  3.42165368E-16
  4.42607955E-03 -5.76429369E-03 -1.51268870E-17  1.56638105E-16  3.33715928E-03
  3.30021803E-04  2.10330268E-04  3.14891610E-04  1.05678368E-16 -1.07352546E-16
 -3.96598411E-16  3.73521882E-17 -2.50829071E-17 -1.08317647E-16 -3.19823351E-16