Title Card Required                                                     
SP        UB3LYP                                                      6-31G(d)            
Number of atoms                            I                3
Info1-9                                    I   N=           9
          11          10           0           0           0         110
           1          18        -502
Full Title                                 C   N=           2
Title Card Required     
Route                                      C   N=           2
# b3lyp/6-31g(d) nosymm 
Charge                                     I                0
Multiplicity                               I                3
Number of electrons                        I                8
Number of alpha electrons                  I                5
Number of beta electrons                   I                3
Number of basis functions                  I               19
Number of independent functions            I               19
Number of point charges in /Mol/           I                0
Number of translation vectors              I                0
Atomic numbers                             I   N=           3
           6           1           1
Nuclear charges                            R   N=           3
  6.00000000E+00  1.00000000E+00  1.00000000E+00
Current cartesian coordinates              R   N=           9
  0.00000000E+00  0.00000000E+00 -1.25747479E+00  0.00000000E+00 -1.74546443E+00
 -2.34240246E+00  0.00000000E+00  1.74546443E+00 -2.34240246E+00
Number of symbols in /Mol/                 I                0
Force Field                                I                0
Atom Types                                 C   N=           3
                                    
Int Atom Types                             I   N=           3
           0           0           0
MM charges                                 R   N=           3
  0.00000000E+00  0.00000000E+00  0.00000000E+00
Integer atomic weights                     I   N=           3
          12           1           1
Real atomic weights                        R   N=           3
  1.20000000E+01  1.00782504E+00  1.00782504E+00
Atom fragment info                         I   N=           3
           0           0           0
Atom residue num                           I   N=           3
           0           0           0
Nuclear spins                              I   N=           3
           0           1           1
Nuclear ZEff                               R   N=           3
 -3.60000000E+00 -1.00000000E+00 -1.00000000E+00
Nuclear ZNuc                               R   N=           3
  6.00000000E+00  1.00000000E+00  1.00000000E+00
Nuclear QMom                               R   N=           3
  0.00000000E+00  0.00000000E+00  0.00000000E+00
Nuclear GFac                               R   N=           3
  0.00000000E+00  2.79284600E+00  2.79284600E+00
MicOpt                                     I   N=           3
          -1          -1          -1
Number of residues                         I                0
Number of secondary structures             I                0
Number of contracted shells                I                8
Number of primitive shells                 I               19
Pure/Cartesian d shells                    I                1
Pure/Cartesian f shells                    I                0
Highest angular momentum                   I                2
Largest degree of contraction              I                6
Shell types                                I   N=           8
           0          -1          -1           2           0           0
           0           0
Number of primitives per shell             I   N=           8
           6           3           1           1           3           1
           3           1
Shell to atom map                          I   N=           8
           1           1           1           1           2           2
           3           3
Primitive exponents                        R   N=          19
  3.04752488E+03  4.57369518E+02  1.03948685E+02  2.92101553E+01  9.28666296E+00
  3.16392696E+00  7.86827235E+00  1.88128854E+00  5.44249258E-01  1.68714478E-01
  8.00000000E-01  1.87311370E+01  2.82539436E+00  6.40121692E-01  1.61277759E-01
  1.87311370E+01  2.82539436E+00  6.40121692E-01  1.61277759E-01
Contraction coefficients                   R   N=          19
  1.83473713E-03  1.40373228E-02  6.88426223E-02  2.32184443E-01  4.67941348E-01
  3.62311985E-01 -1.19332420E-01 -1.60854152E-01  1.14345644E+00  1.00000000E+00
  1.00000000E+00  3.34946043E-02  2.34726953E-01  8.13757326E-01  1.00000000E+00
  3.34946043E-02  2.34726953E-01  8.13757326E-01  1.00000000E+00
P(S=P) Contraction coefficients            R   N=          19
  0.00000000E+00  0.00000000E+00  0.00000000E+00  0.00000000E+00  0.00000000E+00
  0.00000000E+00  6.89990666E-02  3.16423961E-01  7.44308291E-01  1.00000000E+00
  0.00000000E+00  0.00000000E+00  0.00000000E+00  0.00000000E+00  0.00000000E+00
  0.00000000E+00  0.00000000E+00  0.00000000E+00  0.00000000E+00
Coordinates of each shell                  R   N=          24
  0.00000000E+00  0.00000000E+00 -1.25747479E+00  0.00000000E+00  0.00000000E+00
 -1.25747479E+00  0.00000000E+00  0.00000000E+00 -1.25747479E+00  0.00000000E+00
  0.00000000E+00 -1.25747479E+00  0.00000000E+00 -1.74546443E+00 -2.34240246E+00
  0.00000000E+00 -1.74546443E+00 -2.34240246E+00  0.00000000E+00  1.74546443E+00
 -2.34240246E+00  0.00000000E+00  1.74546443E+00 -2.34240246E+00
Num ILSW                                   I              100
ILSW                                       I   N=         100
           1           1           0           0           2           0
           0           0           0           0         402          -1
           5           0           0           0           0           0
           0           0           1           0           0           0
           1           1           0           0           0           0
           0           0      100000           0          -1           0
           0           0           0           0           0           0
           0           0           0           1           0           0
           0 -2000000000           1           0           0           0
           0           0           4          52           0           0
           0           0           5           0           0           0
           0           0           0           0           0           1
           0           0           0           0           0           0
           0           0           0           0           0           0
           0           0           0           0           0           0
           0           0           0           0           0           0
           0           0           0           0
Num RLSW                                   I               52
RLSW                                       R   N=          52
  8.00000000E-01  7.20000000E-01  1.00000000E+00  8.10000000E-01  2.00000000E-01
  0.00000000E+00  0.00000000E+00  1.00000000E+00  0.00000000E+00  0.00000000E+00
  0.00000000E+00  0.00000000E+00  1.00000000E+00  0.00000000E+00  0.00000000E+00
  0.00000000E+00  0.00000000E+00  1.00000000E+00  0.00000000E+00  0.00000000E+00
  0.00000000E+00  0.00000000E+00  1.00000000E+00  0.00000000E+00  0.00000000E+00
  0.00000000E+00  0.00000000E+00  1.00000000E+00  0.00000000E+00  0.00000000E+00
  0.00000000E+00  0.00000000E+00  1.00000000E+00  0.00000000E+00  0.00000000E+00
  0.00000000E+00  0.00000000E+00  0.00000000E+00  1.00000000E+00  1.00000000E+00
  0.00000000E+00  1.00000000E+00  0.00000000E+00  0.00000000E+00  0.00000000E+00
  0.00000000E+00  0.00000000E+00  0.00000000E+00  0.00000000E+00  0.00000000E+00
  0.00000000E+00  0.00000000E+00
MxBond                                     I                2
NBond                                      I   N=           3
           2           1           1
IBond                                      I   N=           6
           2           3           1           0           1           0
RBond                                      R   N=           6
  1.00000000E+00  1.00000000E+00  1.00000000E+00  0.00000000E+00  1.00000000E+00
  0.00000000E+00
Virial Ratio                               R      2.008820358166967E+00
SCF Energy                                 R     -3.914559088385911E+01
Total Energy                               R     -3.914559088385911E+01
S**2                                       R      2.003983753756496E+00
S**2 after annihilation                    R      2.000005477223822E+00
RMS Density                                R      1.623620710147289E-09
Job Status                                 I                1
Nuclear derivative order                   I                0
External E-field                           R   N=          35
  0.00000000E+00  0.00000000E+00  0.00000000E+00  0.00000000E+00  0.00000000E+00
  0.00000000E+00  0.00000000E+00  0.00000000E+00  0.00000000E+00  0.00000000E+00
  0.00000000E+00  0.00000000E+00  0.00000000E+00  0.00000000E+00  0.00000000E+00
  0.00000000E+00  0.00000000E+00  0.00000000E+00  0.00000000E+00  0.00000000E+00
  0.00000000E+00  0.00000000E+00  0.00000000E+00  0.00000000E+00  0.00000000E+00
  0.00000000E+00  0.00000000E+00  0.00000000E+00  0.00000000E+00  0.00000000E+00
  0.00000000E+00  0.00000000E+00  0.00000000E+00  0.00000000E+00  0.00000000E+00
IOpCl                                      I                1
IROHF                                      I                0
Alpha Orbital Energies                     R   N=          19
 -1.02277201E+01 -6.77350322E-01 -4.29389784E-01 -2.98767800E-01 -2.38620821E-01
  1.22771531E-01  1.70608169E-01  5.23899007E-01  5.25509678E-01  5.43354017E-01
  6.68990449E-01  8.82625695E-01  9.19731526E-01  1.63123718E+00  1.63502444E+00
  1.63923621E+00  2.02205820E+00  2.18859681E+00  3.96250912E+00
Beta Orbital Energies                      R   N=          19
 -1.01988602E+01 -6.04654281E-01 -4.06530757E-01 -9.03211108E-02 -3.83581133E-02
  1.43605391E-01  1.94921585E-01  5.61855473E-01  6.03504382E-01  6.16021980E-01
  7.10699639E-01  9.11899718E-01  9.58072498E-01  1.72020497E+00  1.75898650E+00
  1.78564404E+00  2.10482959E+00  2.24990743E+00  4.03549600E+00
Alpha MO coefficients                      R   N=         361
  9.92305426E-01  5.08721536E-02  2.99896909E-17  1.16047096E-16 -1.83477921E-04
 -8.93806940E-03 -2.11745735E-17  1.73531101E-16  1.28561826E-03 -1.03267910E-02
 -1.06983627E-02 -1.03824686E-02  5.69913982E-18  3.45512952E-16 -2.34960971E-16
 -3.10924129E-04  2.26354420E-03 -3.10924129E-04  2.26354420E-03 -2.06432497E-01
  4.21939616E-01 -7.00174498E-17  3.75132987E-16 -8.30901752E-02  4.20254964E-01
  4.93272279E-17 -2.35522737E-15 -3.13858117E-02 -1.15420161E-02  3.50973007E-03
 -6.82164325E-04  9.21837655E-17 -5.15566276E-16  2.88159042E-16  1.68768542E-01
  4.81976270E-02  1.68768542E-01  4.81976270E-02 -4.36525538E-16  1.00910777E-15
 -1.95414946E-15  4.69428382E-01  1.03456989E-15  6.40428036E-15 -1.70992351E-15
  1.70287433E-01 -1.46113835E-15 -1.27807777E-15 -9.50806685E-16 -8.93997744E-16
  1.72329515E-17  2.52668892E-17 -2.71044654E-02 -2.46293999E-01 -2.03353014E-01
  2.46293999E-01  2.03353014E-01 -7.90664211E-02  1.70498756E-01 -1.04207295E-15
 -1.02506184E-15  5.56718825E-01  3.78084337E-01 -6.74249248E-16 -9.42512598E-15
  3.70515584E-01  3.36917200E-03 -1.80912634E-02 -9.62918140E-03  4.57731538E-17
  2.75238011E-17  3.04314945E-16 -1.21992372E-01 -1.27791710E-01 -1.21992372E-01
 -1.27791710E-01 -1.90426177E-16  1.54664219E-16  6.23871602E-01  1.37493095E-15
  7.97462205E-16  5.78018797E-16  5.03100115E-01  3.41679403E-16  7.44576475E-17
  5.72986807E-17  6.21491237E-17 -1.32314467E-16 -1.83043143E-16 -4.13331439E-03
 -1.15622522E-16 -1.12207426E-15  4.30086995E-16  1.27482038E-16 -2.97172071E-16
 -1.23379679E-01  2.10898460E-01  3.40067090E-17 -5.92354594E-14 -2.49510591E-01
  1.82596480E+00 -4.53859469E-17 -2.20703266E-13 -7.73897530E-01  3.62766967E-05
 -1.92666873E-02 -6.73084708E-04 -6.23970395E-18  1.16217856E-17 -1.46014040E-15
 -7.85266263E-02 -1.40555216E+00 -7.85266263E-02 -1.40555216E+00 -1.77867221E-14
  3.28875341E-14  2.09562670E-16  4.41859463E-01 -3.73263840E-14  2.52357934E-13
 -1.23388091E-17  1.32623706E+00 -1.11129524E-13  9.79916492E-15  1.82098102E-15
  7.87351717E-15 -5.35135170E-17  3.16867718E-17  1.59366730E-02  8.36636173E-02
  1.55274843E+00 -8.36636173E-02 -1.55274843E+00  3.38094619E-02 -2.73442978E-01
  2.87369570E-14 -6.62632742E-15 -9.74170140E-01 -2.46020330E-02 -3.12542736E-14
  2.13965096E-14  1.23242717E+00 -3.74357921E-02  2.06596794E-02 -2.56772118E-02
 -5.49440344E-18  3.72853350E-16  5.74760277E-16  1.38088544E-01  1.52674159E-01
  1.38088544E-01  1.52674159E-01  9.12390499E-16 -8.09089564E-15 -1.04471431E+00
  1.64459763E-14 -2.72706085E-14  4.93773235E-16  1.10792137E+00 -3.48948391E-14
  3.42515928E-14 -1.00063969E-15  5.35106849E-16 -6.19670096E-16  4.95281081E-16
 -4.39782039E-03 -3.20612130E-15 -3.25849747E-15 -4.46514183E-15  1.07880851E-14
  1.20319002E-14 -3.02487209E-16  1.11305872E-14 -2.20752836E-14 -7.29982760E-01
  1.11982129E-14 -1.15797531E-14  2.35127861E-14  1.66563718E+00 -1.26294690E-14
  3.16226109E-15  2.19397873E-15  2.68569524E-15 -9.51563025E-16  1.18816838E-16
  1.08706755E-01  3.99416256E-01  3.86641348E-01 -3.99416256E-01 -3.86641348E-01
 -4.58888183E-02 -9.84266637E-01  4.03286823E-16 -4.49901968E-15 -1.47669225E-01
  1.99556252E+00 -2.82710902E-16  1.22281190E-14 -4.76532296E-01  4.72548754E-02
 -2.46693391E-01 -5.75416119E-02  1.51408635E-17 -1.52335311E-16  1.68575920E-15
 -6.33177762E-01 -2.09509996E-01 -6.33177762E-01 -2.09509996E-01 -8.95185031E-16
  9.88911347E-14 -1.46880705E-15 -8.53834102E-01 -3.47214694E-14 -2.20032248E-13
  1.46572861E-15  1.26069229E+00  6.27001779E-14  1.97214389E-14  9.91474532E-16
  1.44944847E-14 -2.14326098E-15 -1.10126482E-15 -2.08361568E-01 -7.32932622E-01
  1.41553707E+00  7.32932622E-01 -1.41553707E+00  2.50592417E-02 -1.48361671E+00
  5.19855977E-17 -6.09170583E-14  4.47379670E-01  3.05407135E+00 -3.55777286E-16
  1.02430504E-13 -8.56375122E-01 -1.58554843E-01  2.80347302E-02 -8.76133087E-02
  4.30735418E-16  8.40372653E-16 -1.37040334E-14  5.64506932E-01 -1.47417548E+00
  5.64506932E-01 -1.47417548E+00  2.72868954E-03  2.24986779E-03 -1.19618698E-16
  1.71699603E-15 -1.35915308E-03 -3.50954977E-02  6.25450789E-16 -2.29242899E-15
  2.32280674E-02 -5.89476693E-01 -4.00844347E-01  9.95832671E-01 -3.24672977E-14
  1.23693168E-13 -1.44214411E-15  1.61299178E-02  9.55587776E-03  1.61299178E-02
  9.55587776E-03 -1.10883847E-16  9.06559611E-16  3.01626130E-15 -4.25512269E-15
 -1.41427790E-16 -5.61983462E-16 -3.70402603E-15  8.25608008E-15 -5.01840924E-16
 -2.26511184E-14 -8.89388237E-15  3.17727770E-14  1.00000000E+00 -4.00020827E-13
 -1.34640628E-15 -3.52697304E-15  6.63889446E-15 -6.03460661E-16 -5.30788477E-15
  1.60453730E-17  1.68140765E-15 -2.01584512E-03 -1.13884293E-15 -2.30764493E-16
 -3.37000669E-15  6.95203676E-03  3.34222480E-15 -4.35169391E-16  7.60406012E-14
  4.67345149E-14 -1.22876651E-13  4.01641889E-13  9.99981787E-01 -1.67166295E-15
 -2.00697081E-15  5.08897667E-15 -7.12755859E-16 -1.04486847E-15 -4.93861991E-02
 -1.41493839E-01 -1.84058531E-16 -1.80043996E-15 -5.89863480E-02  7.85648938E-01
  9.52015352E-17  7.87351303E-15 -3.59817286E-01 -8.94692689E-01  9.59628041E-01
 -1.46424795E-01 -5.09731357E-15  3.62310597E-15 -2.45497070E-15 -5.57469627E-01
 -1.15370291E-01 -5.57469627E-01 -1.15370291E-01  5.33302198E-18  3.02809306E-15
 -2.73113039E-15 -1.49546286E-01 -3.38773276E-15 -8.01318682E-15  2.92735286E-15
 -5.08894186E-01  4.86456574E-15 -3.11832002E-15  9.07033471E-16  2.44806550E-15
  9.43711847E-16  1.55071708E-15  1.12259468E+00 -6.74781624E-01  2.28321934E-02
  6.74781624E-01 -2.28321934E-02 -4.56792430E-01  3.10728336E+00 -3.86615834E-16
 -1.22827628E-15  7.35188729E-02  1.49067737E+00  2.08613519E-16  8.31872135E-15
 -2.33794017E-01 -1.78689712E+00 -1.83955036E+00 -1.80648056E+00  2.14991784E-17
  1.04057870E-17 -2.39763987E-16  1.87672118E-01 -4.73642799E-01  1.87672118E-01
 -4.73642799E-01
Beta MO coefficients                       R   N=         361
  9.93203979E-01  4.51953573E-02  1.91730865E-17  3.75882710E-17 -8.69080455E-04
 -9.07901143E-03 -2.78775615E-17 -1.59546664E-16  1.41322473E-03 -9.18433398E-03
 -8.08644931E-03 -8.88724361E-03 -5.45073704E-17 -2.12823322E-16 -1.74199323E-16
 -5.38289181E-04  2.36929397E-03 -5.38289181E-04  2.36929397E-03 -1.88197177E-01
  3.68752180E-01 -5.98935659E-17  1.59539696E-15 -1.46933777E-01  3.40186865E-01
  1.23713563E-17 -1.70867006E-15 -3.97809786E-02 -2.80463145E-02  2.44373613E-02
 -5.90985396E-03  9.03640934E-17 -8.53592039E-17 -1.40908156E-16  1.97082961E-01
  9.63857834E-02  1.97082961E-01  9.63857834E-02  2.05260542E-16 -5.81315828E-16
 -9.34447655E-16  4.40972079E-01  1.63439282E-15  3.39250796E-15 -1.02995111E-15
  1.46570385E-01 -1.04380563E-15 -1.18705548E-15 -9.01879695E-16 -1.19901324E-15
  5.71298288E-17  1.59256880E-16 -3.44840072E-02 -2.56769975E-01 -2.35927709E-01
  2.56769975E-01  2.35927709E-01 -1.04171717E-01  1.66111732E-01  1.97783301E-17
 -1.35371194E-15  4.34523056E-01  5.58243615E-01  2.93633350E-17 -1.69018164E-14
  4.34391112E-01 -4.83208078E-03  3.94656538E-03 -3.55928239E-02  5.77308673E-18
  9.49229097E-17  2.22933967E-16 -1.07209437E-01 -1.70190607E-01 -1.07209437E-01
 -1.70190607E-01  5.28410665E-17 -5.34354459E-17  5.08568784E-01 -1.32687680E-16
 -1.05213755E-16 -4.47484487E-16  6.18436532E-01  9.47177671E-16 -1.82766266E-16
  1.27605580E-17 -2.27047132E-18  2.03456388E-17  1.37547355E-16 -2.23302626E-02
  2.88516532E-17  2.09508946E-16  4.40377456E-16 -1.07337125E-16 -2.73177502E-17
 -1.25875043E-01  1.92847431E-01 -8.73780984E-17 -5.98329814E-14 -2.53856145E-01
  1.88226052E+00  9.78503146E-17 -2.26821902E-13 -8.13652101E-01 -2.00019800E-02
 -5.63080403E-03  5.67249889E-03 -2.12104051E-16  1.15416316E-17  1.72059430E-15
 -4.82296608E-02 -1.43565671E+00 -4.82296608E-02 -1.43565671E+00 -1.90537423E-14
  3.15248956E-14  4.22172792E-16  4.43151705E-01 -3.98038904E-14  2.66854073E-13
 -3.54290054E-16  1.34913888E+00 -1.14660873E-13  6.93967206E-15  4.33924791E-15
  9.23407599E-15  1.61771235E-17 -3.05336870E-16 -4.89024945E-03  5.19708527E-02
  1.58289160E+00 -5.19708527E-02 -1.58289160E+00  2.86835646E-16  1.09599997E-15
  2.77211079E-15 -7.15381645E-01 -5.78214161E-15 -4.86559622E-15 -2.68720504E-15
  1.68007176E+00  6.69412263E-15  2.41515641E-15  1.43681737E-15  2.03551427E-15
  2.76741820E-17 -1.92896204E-16  1.04169324E-01  4.10451623E-01  4.01015402E-01
 -4.10451623E-01 -4.01015402E-01  5.37396976E-02 -4.45753606E-02  2.89603473E-14
  6.58240039E-15 -9.69045894E-01 -5.56160743E-01 -2.81579390E-14 -1.18181155E-14
  1.28826903E+00 -4.35703587E-02  4.70505875E-02 -1.31617673E-03 -4.22700140E-16
 -3.51066184E-16 -6.98774571E-16  2.74724344E-01  2.29547810E-01  2.74724344E-01
  2.29547810E-01 -1.57182255E-15 -2.94058639E-16  1.10513475E+00  3.42383554E-15
  2.47176078E-14  1.82812965E-14 -1.04794277E+00 -7.74542644E-15 -3.50698732E-14
  1.21422835E-15 -1.92786391E-15 -1.73542746E-16  3.84497309E-16 -1.33605918E-02
  8.20216413E-16 -9.58933727E-15 -1.00998348E-14 -8.87321319E-15 -1.83435153E-15
 -4.16896048E-02 -9.31262397E-01 -3.06626185E-15  3.29922549E-15 -3.96366754E-01
  1.82325971E+00  2.92776391E-15 -5.53654631E-15 -1.96899545E-01  1.70450330E-02
 -2.51373872E-01 -4.32531215E-02 -8.32415317E-16  2.04906326E-16  2.19724378E-15
 -6.13222361E-01 -1.22788948E-01 -6.13222361E-01 -1.22788948E-01 -2.63112043E-15
  1.47741101E-13  2.21232257E-15 -8.83587748E-01 -5.23155372E-14 -3.08970060E-13
 -1.82408217E-15  1.21848487E+00  8.75652567E-14  2.29168435E-14  3.61343125E-15
  1.89253380E-14 -9.49809442E-16  2.01172920E-15 -1.83173304E-01 -7.42239495E-01
  1.37258859E+00  7.42239495E-01 -1.37258859E+00  3.01392977E-02 -1.52937352E+00
  7.44139332E-16 -9.10615367E-14  4.20340901E-01  3.06283989E+00 -9.66949037E-16
  1.43138159E-13 -8.17252837E-01 -1.36825505E-01 -1.03408294E-02 -1.03066089E-01
 -4.53735102E-16 -3.54602114E-16 -2.02717490E-14  5.53149687E-01 -1.43843663E+00
  5.53149687E-01 -1.43843663E+00 -1.10500563E-17 -1.79812263E-15  3.37913373E-16
 -1.52859219E-15 -1.15552347E-15  3.83546011E-15 -1.23823237E-15  4.55272385E-15
  2.67133120E-16 -2.58588917E-15 -2.59730053E-15  4.88902598E-15  1.00000000E+00
 -6.47976678E-15 -1.92437303E-15 -4.90953431E-16  2.54252190E-15  1.12758439E-15
 -5.77927341E-15  4.73645618E-03  3.39611780E-02 -2.82406756E-16  2.12691244E-15
  3.99983966E-02 -1.12117180E-01 -1.95655127E-16  1.06821526E-15  4.77703792E-02
 -5.19540933E-01 -4.73904534E-01  1.00201207E+00 -5.12862413E-15 -2.07842264E-14
 -9.82800561E-15  7.40415092E-02  1.58594184E-02  7.40415092E-02  1.58594184E-02
 -1.14057443E-17  4.64138329E-16  2.61305773E-02  3.41733908E-15  5.76071092E-16
  2.80012855E-17 -1.91350196E-04 -1.15947006E-15 -1.23728898E-16 -1.37454225E-14
 -7.09443029E-15  2.08837128E-14  5.58405503E-15  9.99661370E-01 -1.87872374E-15
  4.29283552E-15 -3.64816117E-15 -3.59018557E-15  3.04357623E-15  4.11781261E-02
  1.90548516E-01  2.40358693E-16  1.78422381E-15  6.08780074E-02 -7.99692347E-01
 -7.00859996E-17 -5.52248479E-15  3.53900900E-01  9.39633298E-01 -9.30867139E-01
  6.45553377E-02  3.74960407E-17  3.50710205E-15 -2.95707487E-16  5.32961201E-01
  1.28018155E-01  5.32961201E-01  1.28018155E-01  1.11400999E-16  1.64120453E-15
 -2.40985379E-15 -1.28593834E-01  2.04433421E-16 -5.76586430E-15  2.36495206E-15
 -5.11432328E-01  3.18430391E-15 -5.11800156E-15 -4.70419322E-15  1.21594886E-14
  1.73868800E-15  2.62079550E-15  1.12730758E+00 -6.57032995E-01  1.08477988E-02
  6.57032995E-01 -1.08477988E-02 -4.55982513E-01  3.11858762E+00 -4.05573020E-16
 -1.42998344E-15  7.71449573E-02  1.47227849E+00  2.15035752E-16  8.60565106E-15
 -2.34617127E-01 -1.78744130E+00 -1.83605143E+00 -1.80727395E+00  2.10643271E-17
  3.35528554E-18  1.21131248E-16  1.86424337E-01 -4.68499480E-01  1.86424337E-01
 -4.68499480E-01
Orthonormal basis                          R   N=         361
  4.11678859E-02  1.90317339E-01 -3.22581207E-18 -3.14000954E-18 -3.05802219E-02
  2.02868847E-01 -4.16187515E-19 -5.88816241E-18 -4.67182827E-02  1.37919349E-01
  1.55331462E-01  1.44646498E-01  0.00000000E+00 -6.21268806E-52  7.07865823E-19
  1.03959635E-01  1.55314032E-01  1.03959635E-01  1.55314032E-01  1.94515426E-17
  7.96840019E-17  1.54839648E-15  2.78191351E-01  5.53087254E-17  4.22428224E-17
  1.64988637E-15  3.52854470E-01  4.70209632E-18  4.36612628E-17  3.86866233E-17
 -8.21193507E-17  8.08175296E-27  0.00000000E+00 -9.40912065E-02 -2.33051361E-01
 -1.89233373E-01  2.33051361E-01  1.89233373E-01  5.74589628E-02  1.62213320E-01
  4.07348499E-16  5.02291527E-17  4.14260064E-01  9.48604054E-02  3.44896108E-16
 -2.81956817E-17  4.57033627E-01  1.50058569E-01  7.18403137E-02  1.19839040E-01
  0.00000000E+00  6.73901562E-41 -1.18127229E-17 -1.64575914E-01 -1.07628834E-01
 -1.64575914E-01 -1.07628834E-01 -2.69362174E-17 -2.38481498E-16  5.64376813E-01
 -1.19585891E-15 -3.02652197E-16 -8.34160232E-17  5.64376813E-01 -1.59036657E-15
 -4.30381292E-16 -2.08575771E-16  2.39361703E-17 -1.44025646E-16  8.45073488E-23
  0.00000000E+00  4.80045682E-16  1.35919758E-15  8.51244026E-16 -7.23193295E-16
 -7.43778775E-16 -1.23208042E-16  5.96029245E-17 -7.16785145E-17  2.58910913E-01
  1.43695651E-16 -4.19181598E-17 -5.10727298E-17  2.23207791E-01  1.38425060E-16
 -3.52686460E-16  3.39531135E-16 -4.19733328E-17 -4.11696182E-19  0.00000000E+00
  8.44343921E-01  1.84855650E-01 -3.91590986E-02 -1.84855650E-01  3.91590986E-02
 -1.65766549E-19  5.06797455E-18  2.61835840E-16 -7.23647083E-17 -8.12443758E-18
 -3.46710067E-18 -2.61835626E-16  1.08127361E-16  2.43083863E-18 -2.51114510E-16
 -1.45446530E-16  4.05950777E-16  9.99999007E-01 -1.40954596E-03 -1.11472972E-16
  2.03859755E-16 -1.81623724E-16 -2.03252427E-16  1.69093696E-16 -4.04541936E-31
 -8.02710165E-31  1.16349425E-17  2.62921756E-16  4.93319840E-30  7.50223495E-30
 -1.16349346E-17 -2.46845681E-16 -6.79393054E-30 -7.77238814E-17 -4.89341961E-17
  1.26658078E-16  1.40954596E-03  9.99999007E-01 -1.32349722E-16  2.11193641E-16
 -2.64073477E-16 -2.11193641E-16  2.64073477E-16  9.71081640E-01  6.29683171E-02
  4.19673534E-17  3.29190828E-17 -1.37007136E-01 -1.47103975E-02  7.46948977E-17
  1.61637912E-16 -8.37016677E-02  2.54156860E-02 -1.37709638E-01 -3.76075871E-02
 -5.43586424E-33  0.00000000E+00  2.03877747E-16 -9.50545430E-02 -4.50325199E-02
 -9.50545430E-02 -4.50325199E-02 -2.29732515E-01  2.21275053E-01  2.41594332E-16
 -9.27684255E-16 -4.16929684E-01 -2.57259888E-02  2.34941389E-16  2.95381827E-16
 -1.84805593E-01  6.35162184E-01 -3.83108720E-01  2.41754443E-01 -1.15282499E-28
  1.62610551E-31  5.83762391E-16 -3.38443692E-01 -1.33638162E-01 -3.38443692E-01
 -1.33638162E-01 -6.42251642E-17 -2.95128848E-16 -1.38807916E-16 -1.01652305E-15
  8.74971353E-16 -9.89678549E-18  1.97637914E-16  5.92502555E-16 -3.54476198E-16
 -6.08434300E-01 -3.83064289E-01  9.91498589E-01 -2.71947991E-16 -1.35973996E-16
 -7.79947262E-17  5.77115251E-17  9.87758159E-17  1.99600141E-16  7.34495597E-16
 -9.42609659E-03  3.44917059E-01  1.07060105E-16 -4.94512047E-16 -5.70546809E-01
 -2.35588592E-01 -5.12193982E-16 -3.31246243E-16  1.69197511E-01 -2.19728158E-01
  7.47884629E-01  1.54107880E-01 -2.20318907E-17  3.10549934E-20 -3.27944482E-16
  3.74049507E-02 -4.60159687E-01  3.74049507E-02 -4.60159687E-01 -7.46528826E-17
  2.50743495E-16  6.06945033E-16  1.09534183E+00 -5.19778457E-16 -3.53112095E-16
 -3.74075587E-16 -3.89099280E-01 -2.96112208E-17  3.00536993E-16 -3.63147995E-16
  6.47842058E-16  0.00000000E+00  0.00000000E+00 -2.43300791E-01  1.03109134E-01
  3.75864517E-01 -1.03109134E-01 -3.75864517E-01  6.26422055E-17 -2.37819248E-16
  1.07801978E+00 -5.37935650E-16  3.47687376E-16  1.37462255E-16 -1.07801978E+00
  4.43135608E-16 -6.61515077E-16 -9.86983313E-17 -5.33183864E-16  2.58640363E-16
 -1.37522996E-16  8.46295360E-17  1.14020057E-16 -1.25431800E-16  6.77810880E-17
  1.70771576E-16  2.79354928E-16 -7.73577904E-03 -3.42910988E-01 -3.67438821E-16
  5.57312119E-16 -8.54787825E-01  4.46762625E-01 -2.94233453E-16  7.33895090E-17
  1.11407377E+00 -2.54193553E-02 -3.82438585E-01 -1.63353306E-01  4.34942612E-20
 -6.13072180E-23 -6.97278235E-16  1.61827416E-01  1.73024215E-01  1.61827416E-01
  1.73024215E-01  9.30777689E-02  5.52398209E-02 -1.62205611E-16 -2.17530241E-16
  2.56500508E-01 -3.83260958E-01 -4.73788210E-17 -7.87213067E-16  1.03250830E-01
  6.22540844E-01 -5.25800235E-01  1.78880647E-01  6.33615105E-19 -8.93110499E-22
  7.95085379E-16  9.54210326E-01 -4.90573640E-01  9.54210326E-01 -4.90573640E-01
  9.18991783E-17  8.45618410E-16  2.26273775E-16  1.24919191E-01  1.54266929E-15
 -8.86506482E-16 -2.16371268E-16  7.39322483E-01 -1.63354993E-15  5.08179303E-16
  1.59739831E-16  6.55476082E-17 -4.87099069E-16 -2.43549534E-16 -7.15859101E-01
  1.03435461E+00 -3.14782669E-01 -1.03435461E+00  3.14782669E-01 -8.92164625E-16
  5.18702921E-15 -2.52281472E-17 -5.83155695E-01 -8.19939182E-16  3.75293922E-15
  3.96611962E-16  2.35334743E+00  1.89123983E-16 -2.62891889E-15 -3.87374147E-15
 -3.78281760E-15  1.20695569E-15  2.25824212E-16 -1.51722831E-01 -2.25185795E-01
  2.08048870E+00  2.25185795E-01 -2.08048870E+00 -3.90052120E-01  3.55532036E+00
 -2.52502831E-16  1.47736880E-15 -5.34405152E-02 -8.32317205E-01  2.01912099E-16
 -5.52301382E-15  4.11707083E-01 -1.38696659E+00 -1.57927768E+00 -1.46126575E+00
 -2.56631875E-18  3.61734785E-21  6.57907468E-16  1.30848814E-01  4.72049402E-01
  1.30848814E-01  4.72049402E-01 -3.19398414E-01  4.22733188E-01 -3.19055743E-16
  1.59433276E-15  2.62605663E-01  4.31958782E+00  6.54072509E-17 -5.07799647E-15
 -1.30346409E+00 -1.09271031E+00 -8.42891111E-01 -9.96192962E-01 -2.73760753E-19
  3.85878810E-22  2.13338648E-16  1.33180828E-01 -1.92655161E+00  1.33180828E-01
 -1.92655161E+00
Total SCF Density                          R   N=         190
  2.05540825E+00 -7.46119717E-02  3.47711632E-01  3.81188908E-17 -1.30418372E-16
  3.89215775E-01 -2.58557197E-16  7.96779963E-16 -4.71618167E-16  4.14819381E-01
 -2.57970953E-04  5.63006748E-03 -6.80316230E-17  3.70065323E-16  3.38430151E-01
 -1.98556870E-01  3.66364747E-01 -8.36242573E-17  4.81379852E-15  1.25592199E-01
  4.35451421E-01 -1.03703703E-16 -1.41091278E-17  3.13869875E-01 -5.65138391E-16
  1.99478124E-17  6.12591889E-17  2.53109726E-01  1.52245711E-15 -3.14255998E-15
 -2.56565372E-16  1.44571202E-01 -4.38455280E-15 -3.54684846E-15 -2.70239871E-16
  5.04806877E-02 -1.26502754E-02  3.53894796E-02 -3.35006427E-16 -1.60102833E-15
  2.14724558E-01  1.13338808E-01 -2.14467142E-16 -3.75206964E-15  1.39853043E-01
 -1.19747518E-02 -1.55781692E-02  3.42382437E-17 -1.17749632E-15  6.96553720E-03
 -1.29420599E-02  2.61137068E-17 -3.48603351E-16  2.70004027E-03  1.12215982E-03
 -2.25406903E-02  6.49796780E-03  5.54402238E-17 -7.86736306E-16 -1.39450541E-02
  3.11726715E-03  4.43926643E-17 -1.74174780E-16 -7.81057489E-03 -6.02091453E-04
  1.11664227E-03 -1.71150420E-02 -5.03870782E-03 -7.25929663E-17 -9.49752146E-16
 -4.42607955E-03 -5.76429369E-03 -5.97141185E-17 -2.25899274E-16 -3.33715928E-03
  3.30021803E-04  2.10330268E-04  3.14891610E-04 -8.81367614E-17  7.78486523E-17
 -1.14195419E-16  3.32822960E-17  4.59199925E-18  8.72314089E-17 -9.20890261E-17