Title Card Required                                                     
FOpt      RB3LYP                                                      6-31G(d)            
Number of atoms                            I                6
Info1-9                                    I   N=           9
          14          13           0           0           0         110
           2          18        -502
Full Title                                 C   N=           2
Title Card Required     
Route                                      C   N=           2
# B3LYP/6-31G* opt      
Charge                                     I                0
Multiplicity                               I                1
Number of electrons                        I               16
Number of alpha electrons                  I                8
Number of beta electrons                   I                8
Number of basis functions                  I               38
Number of independent functions            I               38
Number of point charges in /Mol/           I                0
Number of translation vectors              I                0
Atomic numbers                             I   N=           6
           6           1           1           6           1           1
Nuclear charges                            R   N=           6
  6.00000000E+00  1.00000000E+00  1.00000000E+00  6.00000000E+00  1.00000000E+00
  1.00000000E+00
Current cartesian coordinates              R   N=          18
  1.23259516E-32  0.00000000E+00  1.25747500E+00  0.00000000E+00  1.74546425E+00
  2.34240312E+00 -2.13757720E-16 -1.74546425E+00  2.34240312E+00  1.53996273E-16
  0.00000000E+00 -1.25747500E+00 -2.13757720E-16 -1.74546425E+00 -2.34240312E+00
  2.86861649E-16  1.74546425E+00 -2.34240312E+00
Number of symbols in /Mol/                 I                0
Force Field                                I                0
Atom Types                                 C   N=           6
                                                            
            
Int Atom Types                             I   N=           6
           0           0           0           0           0           0
MM charges                                 R   N=           6
  0.00000000E+00  0.00000000E+00  0.00000000E+00  0.00000000E+00  0.00000000E+00
  0.00000000E+00
Integer atomic weights                     I   N=           6
          12           1           1          12           1           1
Real atomic weights                        R   N=           6
  1.20000000E+01  1.00782504E+00  1.00782504E+00  1.20000000E+01  1.00782504E+00
  1.00782504E+00
Atom fragment info                         I   N=           6
           0           0           0           0           0           0
Atom residue num                           I   N=           6
           0           0           0           0           0           0
Nuclear spins                              I   N=           6
           0           1           1           0           1           1
Nuclear ZEff                               R   N=           6
 -3.60000000E+00 -1.00000000E+00 -1.00000000E+00 -3.60000000E+00 -1.00000000E+00
 -1.00000000E+00
Nuclear ZNuc                               R   N=           6
  6.00000000E+00  1.00000000E+00  1.00000000E+00  6.00000000E+00  1.00000000E+00
  1.00000000E+00
Nuclear QMom                               R   N=           6
  0.00000000E+00  0.00000000E+00  0.00000000E+00  0.00000000E+00  0.00000000E+00
  0.00000000E+00
Nuclear GFac                               R   N=           6
  0.00000000E+00  2.79284600E+00  2.79284600E+00  0.00000000E+00  2.79284600E+00
  2.79284600E+00
MicOpt                                     I   N=           6
          -1          -1          -1          -1          -1          -1
Number of residues                         I                0
Number of secondary structures             I                0
Redundant internal dimensions              I   N=           4
          15           5           6           4
Redundant internal coordinate indices      I   N=          60
           1           2           0           0           1           3
           0           0           1           4           0           0
           4           5           0           0           4           6
           0           0           2           1           3           0
           2           1           4           0           3           1
           4           0           1           4           5           0
           1           4           6           0           5           4
           6           0           2           1           4           5
           2           1           4           6           3           1
           4           5           3           1           4           6
Redundant internal coordinates             R   N=          15
  2.05516775E+00  2.05516775E+00  2.51495000E+00  2.05516775E+00  2.05516775E+00
  2.02933474E+00  2.12692529E+00  2.12692529E+00  2.12692529E+00  2.12692529E+00
  2.02933474E+00  3.14159265E+00  0.00000000E+00  0.00000000E+00  3.14159265E+00
ZRed-IntVec                                I   N=          15
           0           0           0           0           0           0
           0           0           0           0           0           0
           0           0           0
ZRed-FPVec                                 R   N=          15
  0.00000000E+00  0.00000000E+00  0.00000000E+00  0.00000000E+00  0.00000000E+00
  0.00000000E+00  0.00000000E+00  0.00000000E+00  0.00000000E+00  0.00000000E+00
  0.00000000E+00  0.00000000E+00  0.00000000E+00  0.00000000E+00  0.00000000E+00
ZRed-Constraint1                           R   N=          15
  2.02166497E+00  2.02166497E+00  2.56095673E+00  2.02166497E+00  2.02166497E+00
  2.08565761E+00  2.09876385E+00  2.09876385E+00  2.09876385E+00  2.09876385E+00
  2.08565761E+00  3.14159265E+00  0.00000000E+00  0.00000000E+00  3.14159265E+00
ZRed-Constraint2                           R   N=          15
  0.00000000E+00  0.00000000E+00  0.00000000E+00  0.00000000E+00  0.00000000E+00
  0.00000000E+00  0.00000000E+00  0.00000000E+00  0.00000000E+00  0.00000000E+00
  0.00000000E+00  0.00000000E+00  0.00000000E+00  0.00000000E+00  0.00000000E+00
SymInf integers                            I   N=          26
           4           8           1           1           1          -1
          -1           1          -1           1          -1           1
          -1          -1          -1           1           1           1
          -1           1           1           1          -1          -1
          -1          -1
RotTr to input orientation                 R   N=          12
 -1.12481984E-32 -6.12323400E-17 -1.00000000E+00  1.00000000E+00 -1.83697020E-16
  0.00000000E+00 -1.83697020E-16 -1.00000000E+00  6.12323400E-17  4.16333634E-17
  0.00000000E+00 -1.95503360E-16
Number of contracted shells                I               16
Number of primitive shells                 I               38
Pure/Cartesian d shells                    I                1
Pure/Cartesian f shells                    I                0
Highest angular momentum                   I                2
Largest degree of contraction              I                6
Shell types                                I   N=          16
           0          -1          -1           2           0           0
           0           0           0          -1          -1           2
           0           0           0           0
Number of primitives per shell             I   N=          16
           6           3           1           1           3           1
           3           1           6           3           1           1
           3           1           3           1
Shell to atom map                          I   N=          16
           1           1           1           1           2           2
           3           3           4           4           4           4
           5           5           6           6
Primitive exponents                        R   N=          38
  3.04752488E+03  4.57369518E+02  1.03948685E+02  2.92101553E+01  9.28666296E+00
  3.16392696E+00  7.86827235E+00  1.88128854E+00  5.44249258E-01  1.68714478E-01
  8.00000000E-01  1.87311370E+01  2.82539436E+00  6.40121692E-01  1.61277759E-01
  1.87311370E+01  2.82539436E+00  6.40121692E-01  1.61277759E-01  3.04752488E+03
  4.57369518E+02  1.03948685E+02  2.92101553E+01  9.28666296E+00  3.16392696E+00
  7.86827235E+00  1.88128854E+00  5.44249258E-01  1.68714478E-01  8.00000000E-01
  1.87311370E+01  2.82539436E+00  6.40121692E-01  1.61277759E-01  1.87311370E+01
  2.82539436E+00  6.40121692E-01  1.61277759E-01
Contraction coefficients                   R   N=          38
  1.83473713E-03  1.40373228E-02  6.88426223E-02  2.32184443E-01  4.67941348E-01
  3.62311985E-01 -1.19332420E-01 -1.60854152E-01  1.14345644E+00  1.00000000E+00
  1.00000000E+00  3.34946043E-02  2.34726953E-01  8.13757326E-01  1.00000000E+00
  3.34946043E-02  2.34726953E-01  8.13757326E-01  1.00000000E+00  1.83473713E-03
  1.40373228E-02  6.88426223E-02  2.32184443E-01  4.67941348E-01  3.62311985E-01
 -1.19332420E-01 -1.60854152E-01  1.14345644E+00  1.00000000E+00  1.00000000E+00
  3.34946043E-02  2.34726953E-01  8.13757326E-01  1.00000000E+00  3.34946043E-02
  2.34726953E-01  8.13757326E-01  1.00000000E+00
P(S=P) Contraction coefficients            R   N=          38
  0.00000000E+00  0.00000000E+00  0.00000000E+00  0.00000000E+00  0.00000000E+00
  0.00000000E+00  6.89990666E-02  3.16423961E-01  7.44308291E-01  1.00000000E+00
  0.00000000E+00  0.00000000E+00  0.00000000E+00  0.00000000E+00  0.00000000E+00
  0.00000000E+00  0.00000000E+00  0.00000000E+00  0.00000000E+00  0.00000000E+00
  0.00000000E+00  0.00000000E+00  0.00000000E+00  0.00000000E+00  0.00000000E+00
  6.89990666E-02  3.16423961E-01  7.44308291E-01  1.00000000E+00  0.00000000E+00
  0.00000000E+00  0.00000000E+00  0.00000000E+00  0.00000000E+00  0.00000000E+00
  0.00000000E+00  0.00000000E+00  0.00000000E+00
Coordinates of each shell                  R   N=          48
  0.00000000E+00  0.00000000E+00  1.25747500E+00  0.00000000E+00  0.00000000E+00
  1.25747500E+00  0.00000000E+00  0.00000000E+00  1.25747500E+00  0.00000000E+00
  0.00000000E+00  1.25747500E+00  0.00000000E+00  1.74546425E+00  2.34240312E+00
  0.00000000E+00  1.74546425E+00  2.34240312E+00 -2.13757720E-16 -1.74546425E+00
  2.34240312E+00 -2.13757720E-16 -1.74546425E+00  2.34240312E+00  1.53996273E-16
  0.00000000E+00 -1.25747500E+00  1.53996273E-16  0.00000000E+00 -1.25747500E+00
  1.53996273E-16  0.00000000E+00 -1.25747500E+00  1.53996273E-16  0.00000000E+00
 -1.25747500E+00 -2.13757720E-16 -1.74546425E+00 -2.34240312E+00 -2.13757720E-16
 -1.74546425E+00 -2.34240312E+00  2.86861649E-16  1.74546425E+00 -2.34240312E+00
  2.86861649E-16  1.74546425E+00 -2.34240312E+00
Num ILSW                                   I              100
ILSW                                       I   N=         100
           0           1           0           1           2           0
           0           0           0           0         402          -1
           5           0           0           0           2           0
           0           0           1           0           1           0
           1           0           0           0           0           0
           0           0      100000           0          -1           0
           0           0           0           0           0           0
           0           0           0           1           0           0
           0 -2000000000           1           0           0           0
           0           0           4          52           0           0
           0           0           5           0           0           0
           0           0           0           0           0           1
           0           0           0           0           0           0
           0           0           0           0           0           0
           0           0           0           0           0           0
           0           0           0           0           0           0
           0           0           0           0
Num RLSW                                   I               52
RLSW                                       R   N=          52
  8.00000000E-01  7.20000000E-01  1.00000000E+00  8.10000000E-01  2.00000000E-01
  0.00000000E+00  0.00000000E+00  1.00000000E+00  0.00000000E+00  0.00000000E+00
  0.00000000E+00  0.00000000E+00  1.00000000E+00  0.00000000E+00  0.00000000E+00
  0.00000000E+00  0.00000000E+00  1.00000000E+00  0.00000000E+00  0.00000000E+00
  0.00000000E+00  0.00000000E+00  1.00000000E+00  0.00000000E+00  0.00000000E+00
  0.00000000E+00  0.00000000E+00  1.00000000E+00  0.00000000E+00  0.00000000E+00
  0.00000000E+00  0.00000000E+00  1.00000000E+00  0.00000000E+00  0.00000000E+00
  0.00000000E+00  0.00000000E+00  0.00000000E+00  1.00000000E+00  1.00000000E+00
  0.00000000E+00  1.00000000E+00  0.00000000E+00  0.00000000E+00  0.00000000E+00
  0.00000000E+00  0.00000000E+00  0.00000000E+00  0.00000000E+00  0.00000000E+00
  0.00000000E+00  0.00000000E+00
MxBond                                     I                3
NBond                                      I   N=           6
           3           1           1           3           1           1
IBond                                      I   N=          18
           2           3           4           1           0           0
           1           0           0           1           5           6
           4           0           0           4           0           0
RBond                                      R   N=          18
  1.00000000E+00  1.00000000E+00  2.00000000E+00  1.00000000E+00  0.00000000E+00
  0.00000000E+00  1.00000000E+00  0.00000000E+00  0.00000000E+00  2.00000000E+00
  1.00000000E+00  1.00000000E+00  1.00000000E+00  0.00000000E+00  0.00000000E+00
  1.00000000E+00  0.00000000E+00  0.00000000E+00
Virial Ratio                               R      2.010511713233694E+00
SCF Energy                                 R     -7.858745866395442E+01
Total Energy                               R     -7.858745866395442E+01
RMS Force                                  R      5.572460996950698E-05
RMS Density                                R      9.439133468989439E-10
Job Status                                 I                1
Nuclear derivative order                   I                1
External E-field                           R   N=          35
  0.00000000E+00  0.00000000E+00  0.00000000E+00  0.00000000E+00  0.00000000E+00
  0.00000000E+00  0.00000000E+00  0.00000000E+00  0.00000000E+00  0.00000000E+00
  0.00000000E+00  0.00000000E+00  0.00000000E+00  0.00000000E+00  0.00000000E+00
  0.00000000E+00  0.00000000E+00  0.00000000E+00  0.00000000E+00  0.00000000E+00
  0.00000000E+00  0.00000000E+00  0.00000000E+00  0.00000000E+00  0.00000000E+00
  0.00000000E+00  0.00000000E+00  0.00000000E+00  0.00000000E+00  0.00000000E+00
  0.00000000E+00  0.00000000E+00  0.00000000E+00  0.00000000E+00  0.00000000E+00
IOpCl                                      I                0
IROHF                                      I                0
Alpha Orbital Energies                     R   N=          38
 -1.01842755E+01 -1.01833821E+01 -7.54756357E-01 -5.77301941E-01 -4.64668042E-01
 -4.16403559E-01 -3.53190753E-01 -2.66644494E-01  1.88067714E-02  1.22346528E-01
  1.40219014E-01  1.57544780E-01  2.44054870E-01  3.32386018E-01  4.80319882E-01
  5.48443710E-01  5.68603695E-01  6.37280490E-01  6.55229175E-01  6.99097715E-01
  8.47426196E-01  8.72156533E-01  9.31660961E-01  9.41035984E-01  1.10578087E+00
  1.21583590E+00  1.46276752E+00  1.54516022E+00  1.83293248E+00  1.89020117E+00
  1.98782304E+00  2.08833818E+00  2.28541445E+00  2.38633330E+00  2.70140566E+00
  2.70541596E+00  4.09689257E+00  4.24630465E+00
Alpha MO coefficients                      R   N=        1444
  7.01781222E-01  3.43944184E-02  0.00000000E+00  0.00000000E+00  2.99319308E-04
 -6.02595380E-03  0.00000000E+00  0.00000000E+00 -7.15449855E-04 -7.00766962E-03
 -6.83277847E-03 -6.69191117E-03  0.00000000E+00  0.00000000E+00  0.00000000E+00
 -2.92502792E-04  1.56144062E-03 -2.92502792E-04  1.56144062E-03  7.01781222E-01
  3.43944184E-02  0.00000000E+00  0.00000000E+00 -2.99319308E-04 -6.02595380E-03
  0.00000000E+00  0.00000000E+00  7.15449855E-04 -7.00766962E-03 -6.83277847E-03
 -6.69191117E-03  0.00000000E+00  0.00000000E+00  0.00000000E+00 -2.92502792E-04
  1.56144062E-03 -2.92502792E-04  1.56144062E-03  7.02131942E-01  3.51861289E-02
  0.00000000E+00  0.00000000E+00 -3.13452604E-04 -1.24303911E-02  0.00000000E+00
  0.00000000E+00  2.02347199E-03 -6.82293534E-03 -6.55474145E-03 -6.27912308E-03
  0.00000000E+00  0.00000000E+00  0.00000000E+00 -1.84699374E-04  1.54577886E-03
 -1.84699374E-04  1.54577886E-03 -7.02131942E-01 -3.51861289E-02  0.00000000E+00
  0.00000000E+00 -3.13452604E-04  1.24303911E-02  0.00000000E+00  0.00000000E+00
  2.02347199E-03  6.82293534E-03  6.55474145E-03  6.27912308E-03  0.00000000E+00
  0.00000000E+00  0.00000000E+00  1.84699374E-04 -1.54577886E-03  1.84699374E-04
 -1.54577886E-03 -1.60408607E-01  3.10069974E-01  0.00000000E+00  0.00000000E+00
 -1.00143362E-01  2.32800666E-01  0.00000000E+00  0.00000000E+00 -4.34043364E-03
 -1.67275588E-02 -1.35998658E-04  7.98808495E-03  0.00000000E+00  0.00000000E+00
  0.00000000E+00  8.43432115E-02  1.78362126E-02  8.43432115E-02  1.78362126E-02
 -1.60408607E-01  3.10069974E-01  0.00000000E+00  0.00000000E+00  1.00143362E-01
  2.32800666E-01  0.00000000E+00  0.00000000E+00  4.34043364E-03 -1.67275588E-02
 -1.35998658E-04  7.98808495E-03  0.00000000E+00  0.00000000E+00  0.00000000E+00
  8.43432115E-02  1.78362126E-02  8.43432115E-02  1.78362126E-02 -1.23086174E-01
  2.47465545E-01  0.00000000E+00  0.00000000E+00  1.72055441E-01  2.30932337E-01
  0.00000000E+00  0.00000000E+00  6.98452234E-02 -1.13415792E-02  1.34852595E-02
 -8.16508835E-03  0.00000000E+00  0.00000000E+00  0.00000000E+00  1.45891463E-01
  6.58802476E-02  1.45891463E-01  6.58802476E-02  1.23086174E-01 -2.47465545E-01
  0.00000000E+00  0.00000000E+00  1.72055441E-01 -2.30932337E-01  0.00000000E+00
  0.00000000E+00  6.98452234E-02  1.13415792E-02 -1.34852595E-02  8.16508835E-03
  0.00000000E+00  0.00000000E+00  0.00000000E+00 -1.45891463E-01 -6.58802476E-02
 -1.45891463E-01 -6.58802476E-02  0.00000000E+00  0.00000000E+00  0.00000000E+00
  3.31053871E-01  0.00000000E+00  0.00000000E+00  0.00000000E+00  1.21056557E-01
  0.00000000E+00  0.00000000E+00  0.00000000E+00  0.00000000E+00  0.00000000E+00
  0.00000000E+00  6.10172068E-03  1.55267043E-01  1.11998841E-01 -1.55267043E-01
 -1.11998841E-01  0.00000000E+00  0.00000000E+00  0.00000000E+00  3.31053871E-01
  0.00000000E+00  0.00000000E+00  0.00000000E+00  1.21056557E-01  0.00000000E+00
  0.00000000E+00  0.00000000E+00  0.00000000E+00  0.00000000E+00  0.00000000E+00
 -6.10172068E-03 -1.55267043E-01 -1.11998841E-01  1.55267043E-01  1.11998841E-01
  1.46759738E-02 -3.26564121E-02  0.00000000E+00  0.00000000E+00  4.14123632E-01
 -3.21260706E-03  0.00000000E+00  0.00000000E+00  1.41544834E-01  4.93051989E-04
  1.90521180E-02 -5.44010355E-03  0.00000000E+00  0.00000000E+00  0.00000000E+00
  1.24849652E-01  1.08180319E-01  1.24849652E-01  1.08180319E-01  1.46759738E-02
 -3.26564121E-02  0.00000000E+00  0.00000000E+00 -4.14123632E-01 -3.21260706E-03
  0.00000000E+00  0.00000000E+00 -1.41544834E-01  4.93051989E-04  1.90521180E-02
 -5.44010355E-03  0.00000000E+00  0.00000000E+00  0.00000000E+00  1.24849652E-01
  1.08180319E-01  1.24849652E-01  1.08180319E-01  0.00000000E+00  0.00000000E+00
  0.00000000E+00  3.09492531E-01  0.00000000E+00  0.00000000E+00  0.00000000E+00
  1.16804675E-01  0.00000000E+00  0.00000000E+00  0.00000000E+00  0.00000000E+00
  0.00000000E+00  0.00000000E+00  3.05820543E-02  1.97280038E-01  1.96958084E-01
 -1.97280038E-01 -1.96958084E-01  0.00000000E+00  0.00000000E+00  0.00000000E+00
 -3.09492531E-01  0.00000000E+00  0.00000000E+00  0.00000000E+00 -1.16804675E-01
  0.00000000E+00  0.00000000E+00  0.00000000E+00  0.00000000E+00  0.00000000E+00
  0.00000000E+00  3.05820543E-02  1.97280038E-01  1.96958084E-01 -1.97280038E-01
 -1.96958084E-01  0.00000000E+00  0.00000000E+00  4.01443710E-01  0.00000000E+00
  0.00000000E+00  0.00000000E+00  2.84525810E-01  0.00000000E+00  0.00000000E+00
  0.00000000E+00  0.00000000E+00  0.00000000E+00  0.00000000E+00 -1.61156100E-02
  0.00000000E+00  0.00000000E+00  0.00000000E+00  0.00000000E+00  0.00000000E+00
  0.00000000E+00  0.00000000E+00  4.01443710E-01  0.00000000E+00  0.00000000E+00
  0.00000000E+00  2.84525810E-01  0.00000000E+00  0.00000000E+00  0.00000000E+00
  0.00000000E+00  0.00000000E+00  0.00000000E+00  1.61156100E-02  0.00000000E+00
  0.00000000E+00  0.00000000E+00  0.00000000E+00  0.00000000E+00  0.00000000E+00
  0.00000000E+00  4.18974124E-01  0.00000000E+00  0.00000000E+00  0.00000000E+00
  6.32172812E-01  0.00000000E+00  0.00000000E+00  0.00000000E+00  0.00000000E+00
  0.00000000E+00  0.00000000E+00  2.50615585E-02  0.00000000E+00  0.00000000E+00
  0.00000000E+00  0.00000000E+00  0.00000000E+00  0.00000000E+00  0.00000000E+00
 -4.18974124E-01  0.00000000E+00  0.00000000E+00  0.00000000E+00 -6.32172812E-01
  0.00000000E+00  0.00000000E+00  0.00000000E+00  0.00000000E+00  0.00000000E+00
  0.00000000E+00  2.50615585E-02  0.00000000E+00  0.00000000E+00  0.00000000E+00
  0.00000000E+00  0.00000000E+00 -8.17606001E-02  1.27033873E-01  0.00000000E+00
  0.00000000E+00  1.83411432E-01  1.38051565E+00  0.00000000E+00  0.00000000E+00
  5.91298672E-01 -3.50242112E-03 -1.38826132E-02  4.43093422E-03  0.00000000E+00
  0.00000000E+00  0.00000000E+00 -4.04120165E-02 -9.76874516E-01 -4.04120165E-02
 -9.76874516E-01 -8.17606001E-02  1.27033873E-01  0.00000000E+00  0.00000000E+00
 -1.83411432E-01  1.38051565E+00  0.00000000E+00  0.00000000E+00 -5.91298672E-01
 -3.50242112E-03 -1.38826132E-02  4.43093422E-03  0.00000000E+00  0.00000000E+00
  0.00000000E+00 -4.04120165E-02 -9.76874516E-01 -4.04120165E-02 -9.76874516E-01
  0.00000000E+00  0.00000000E+00  0.00000000E+00 -3.04648961E-01  0.00000000E+00
  0.00000000E+00  0.00000000E+00 -7.09553827E-01  0.00000000E+00  0.00000000E+00
  0.00000000E+00  0.00000000E+00  0.00000000E+00  0.00000000E+00  2.63704066E-02
  7.70248994E-02  9.99059465E-01 -7.70248994E-02 -9.99059465E-01  0.00000000E+00
  0.00000000E+00  0.00000000E+00 -3.04648961E-01  0.00000000E+00  0.00000000E+00
  0.00000000E+00 -7.09553827E-01  0.00000000E+00  0.00000000E+00  0.00000000E+00
  0.00000000E+00  0.00000000E+00  0.00000000E+00 -2.63704066E-02 -7.70248994E-02
 -9.99059465E-01  7.70248994E-02  9.99059465E-01 -1.14287929E-01  1.60842540E-01
  0.00000000E+00  0.00000000E+00  1.16372732E-01  1.82782375E+00  0.00000000E+00
  0.00000000E+00  1.04371530E-01 -9.57904148E-03 -1.84089948E-03 -9.07396377E-03
  0.00000000E+00  0.00000000E+00  0.00000000E+00 -5.24363193E-02 -9.97078778E-01
 -5.24363193E-02 -9.97078778E-01  1.14287929E-01 -1.60842540E-01  0.00000000E+00
  0.00000000E+00  1.16372732E-01 -1.82782375E+00  0.00000000E+00  0.00000000E+00
  1.04371530E-01  9.57904148E-03  1.84089948E-03  9.07396377E-03  0.00000000E+00
  0.00000000E+00  0.00000000E+00  5.24363193E-02  9.97078778E-01  5.24363193E-02
  9.97078778E-01  0.00000000E+00  0.00000000E+00  0.00000000E+00  3.28692101E-01
  0.00000000E+00  0.00000000E+00  0.00000000E+00  1.65601410E+00  0.00000000E+00
  0.00000000E+00  0.00000000E+00  0.00000000E+00  0.00000000E+00  0.00000000E+00
  1.89506783E-02  1.83439051E-02 -1.48192931E+00 -1.83439051E-02  1.48192931E+00
  0.00000000E+00  0.00000000E+00  0.00000000E+00 -3.28692101E-01  0.00000000E+00
  0.00000000E+00  0.00000000E+00 -1.65601410E+00  0.00000000E+00  0.00000000E+00
  0.00000000E+00  0.00000000E+00  0.00000000E+00  0.00000000E+00  1.89506783E-02
  1.83439051E-02 -1.48192931E+00 -1.83439051E-02  1.48192931E+00 -7.12979408E-02
  3.33668805E-02  0.00000000E+00  0.00000000E+00 -1.98710198E-01  2.96903115E+00
  0.00000000E+00  0.00000000E+00 -2.84557033E+00 -1.01487323E-02  2.59204915E-02
 -1.96716975E-02  0.00000000E+00  0.00000000E+00  0.00000000E+00  8.37729346E-02
  5.51210391E-01  8.37729346E-02  5.51210391E-01  7.12979408E-02 -3.33668805E-02
  0.00000000E+00  0.00000000E+00 -1.98710198E-01 -2.96903115E+00  0.00000000E+00
  0.00000000E+00 -2.84557033E+00  1.01487323E-02 -2.59204915E-02  1.96716975E-02
  0.00000000E+00  0.00000000E+00  0.00000000E+00 -8.37729346E-02 -5.51210391E-01
 -8.37729346E-02 -5.51210391E-01  2.03381010E-02  1.90544764E-01  0.00000000E+00
  0.00000000E+00 -5.60862417E-01  2.87210808E-01  0.00000000E+00  0.00000000E+00
  1.06285092E+00 -3.77372324E-03 -3.72863980E-02  7.68660095E-02  0.00000000E+00
  0.00000000E+00  0.00000000E+00 -6.82167428E-02 -1.25948327E-01 -6.82167428E-02
 -1.25948327E-01  2.03381010E-02  1.90544764E-01  0.00000000E+00  0.00000000E+00
  5.60862417E-01  2.87210808E-01  0.00000000E+00  0.00000000E+00 -1.06285092E+00
 -3.77372324E-03 -3.72863980E-02  7.68660095E-02  0.00000000E+00  0.00000000E+00
  0.00000000E+00 -6.82167428E-02 -1.25948327E-01 -6.82167428E-02 -1.25948327E-01
  0.00000000E+00  0.00000000E+00  7.29856682E-01  0.00000000E+00  0.00000000E+00
  0.00000000E+00 -6.50023715E-01  0.00000000E+00  0.00000000E+00  0.00000000E+00
  0.00000000E+00  0.00000000E+00  0.00000000E+00 -5.57398940E-02  0.00000000E+00
  0.00000000E+00  0.00000000E+00  0.00000000E+00  0.00000000E+00  0.00000000E+00
  0.00000000E+00  7.29856682E-01  0.00000000E+00  0.00000000E+00  0.00000000E+00
 -6.50023715E-01  0.00000000E+00  0.00000000E+00  0.00000000E+00  0.00000000E+00
  0.00000000E+00  0.00000000E+00  5.57398940E-02  0.00000000E+00  0.00000000E+00
  0.00000000E+00  0.00000000E+00  0.00000000E+00  0.00000000E+00  0.00000000E+00
  0.00000000E+00 -4.07176888E-01  0.00000000E+00  0.00000000E+00  0.00000000E+00
  7.71473211E-01  0.00000000E+00  0.00000000E+00  0.00000000E+00  0.00000000E+00
  0.00000000E+00  0.00000000E+00 -9.51031960E-02 -3.84272670E-01 -6.47648615E-02
  3.84272670E-01  6.47648615E-02  0.00000000E+00  0.00000000E+00  0.00000000E+00
 -4.07176888E-01  0.00000000E+00  0.00000000E+00  0.00000000E+00  7.71473211E-01
  0.00000000E+00  0.00000000E+00  0.00000000E+00  0.00000000E+00  0.00000000E+00
  0.00000000E+00  9.51031960E-02  3.84272670E-01  6.47648615E-02 -3.84272670E-01
 -6.47648615E-02  0.00000000E+00  0.00000000E+00 -7.84160372E-01  0.00000000E+00
  0.00000000E+00  0.00000000E+00  1.13942190E+00  0.00000000E+00  0.00000000E+00
  0.00000000E+00  0.00000000E+00  0.00000000E+00  0.00000000E+00 -1.98576019E-02
  0.00000000E+00  0.00000000E+00  0.00000000E+00  0.00000000E+00  0.00000000E+00
  0.00000000E+00  0.00000000E+00  7.84160372E-01  0.00000000E+00  0.00000000E+00
  0.00000000E+00 -1.13942190E+00  0.00000000E+00  0.00000000E+00  0.00000000E+00
  0.00000000E+00  0.00000000E+00  0.00000000E+00 -1.98576019E-02  0.00000000E+00
  0.00000000E+00  0.00000000E+00  0.00000000E+00  0.00000000E+00 -3.78960194E-02
 -7.08832158E-01  0.00000000E+00  0.00000000E+00  3.25799028E-02  1.35087027E+00
  0.00000000E+00  0.00000000E+00  3.38227774E-01  5.80963123E-02 -1.49091597E-01
 -7.72274277E-02  0.00000000E+00  0.00000000E+00  0.00000000E+00 -4.27695322E-01
 -1.60009057E-01 -4.27695322E-01 -1.60009057E-01 -3.78960194E-02 -7.08832158E-01
  0.00000000E+00  0.00000000E+00 -3.25799028E-02  1.35087027E+00  0.00000000E+00
  0.00000000E+00 -3.38227774E-01  5.80963123E-02 -1.49091597E-01 -7.72274277E-02
  0.00000000E+00  0.00000000E+00  0.00000000E+00 -4.27695322E-01 -1.60009057E-01
 -4.27695322E-01 -1.60009057E-01 -8.79749568E-02  3.54955909E-02  0.00000000E+00
  0.00000000E+00 -6.36540852E-01  4.19945744E-01  0.00000000E+00  0.00000000E+00
  7.35566479E-01  8.91634379E-02 -4.29761759E-02 -1.62476711E-01  0.00000000E+00
  0.00000000E+00  0.00000000E+00 -3.63042252E-01 -1.01066893E-01 -3.63042252E-01
 -1.01066893E-01  8.79749568E-02 -3.54955909E-02  0.00000000E+00  0.00000000E+00
 -6.36540852E-01 -4.19945744E-01  0.00000000E+00  0.00000000E+00  7.35566479E-01
 -8.91634379E-02  4.29761759E-02  1.62476711E-01  0.00000000E+00  0.00000000E+00
  0.00000000E+00  3.63042252E-01  1.01066893E-01  3.63042252E-01  1.01066893E-01
  0.00000000E+00  0.00000000E+00  0.00000000E+00 -6.64361941E-01  0.00000000E+00
  0.00000000E+00  0.00000000E+00  1.13880739E+00  0.00000000E+00  0.00000000E+00
  0.00000000E+00  0.00000000E+00  0.00000000E+00  0.00000000E+00  1.68185452E-01
  3.94111967E-01 -1.12895321E+00 -3.94111967E-01  1.12895321E+00  0.00000000E+00
  0.00000000E+00  0.00000000E+00 -6.64361941E-01  0.00000000E+00  0.00000000E+00
  0.00000000E+00  1.13880739E+00  0.00000000E+00  0.00000000E+00  0.00000000E+00
  0.00000000E+00  0.00000000E+00  0.00000000E+00 -1.68185452E-01 -3.94111967E-01
  1.12895321E+00  3.94111967E-01 -1.12895321E+00  0.00000000E+00  0.00000000E+00
  0.00000000E+00 -8.82378824E-01  0.00000000E+00  0.00000000E+00  0.00000000E+00
  2.67905358E+00  0.00000000E+00  0.00000000E+00  0.00000000E+00  0.00000000E+00
  0.00000000E+00  0.00000000E+00  1.33653642E-02  2.51968802E-01 -1.50163751E+00
 -2.51968802E-01  1.50163751E+00  0.00000000E+00  0.00000000E+00  0.00000000E+00
  8.82378824E-01  0.00000000E+00  0.00000000E+00  0.00000000E+00 -2.67905358E+00
  0.00000000E+00  0.00000000E+00  0.00000000E+00  0.00000000E+00  0.00000000E+00