Optimized at M062X/6-311G**                                             
SP        RB3LYP                                                      def2TZVP            
Number of atoms                            I                3
Info1-9                                    I   N=           9
          10          10           0           0           0         110
           1          18        -502
Full Title                                 C   N=           3
Optimized at M062X/6-311G**         
Route                                      C   N=           2
# B3LYP/def2TZVP nosymm 
Charge                                     I                0
Multiplicity                               I                1
Number of electrons                        I               10
Number of alpha electrons                  I                5
Number of beta electrons                   I                5
Number of basis functions                  I               43
Number of independent functions            I               43
Number of point charges in /Mol/           I                0
Number of translation vectors              I                0
Atomic numbers                             I   N=           3
           8           1           1
Nuclear charges                            R   N=           3
  8.00000000E+00  1.00000000E+00  1.00000000E+00
Current cartesian coordinates              R   N=           9
 -2.55192962E+00  2.55192962E+00  1.33359862E-01 -3.00983105E+00  3.42296486E+00
  1.65485017E+00 -7.28489421E-01  2.81404597E+00 -5.64990317E-02
Number of symbols in /Mol/                 I                0
Force Field                                I                0
Atom Types                                 C   N=           3
                                    
Int Atom Types                             I   N=           3
           0           0           0
MM charges                                 R   N=           3
  0.00000000E+00  0.00000000E+00  0.00000000E+00
Integer atomic weights                     I   N=           3
          16           1           1
Real atomic weights                        R   N=           3
  1.59949146E+01  1.00782504E+00  1.00782504E+00
Atom fragment info                         I   N=           3
           0           0           0
Atom residue num                           I   N=           3
           0           0           0
Nuclear spins                              I   N=           3
           0           1           1
Nuclear ZEff                               R   N=           3
 -5.60000000E+00 -1.00000000E+00 -1.00000000E+00
Nuclear ZNuc                               R   N=           3
  8.00000000E+00  1.00000000E+00  1.00000000E+00
Nuclear QMom                               R   N=           3
  0.00000000E+00  0.00000000E+00  0.00000000E+00
Nuclear GFac                               R   N=           3
  0.00000000E+00  2.79284600E+00  2.79284600E+00
MicOpt                                     I   N=           3
          -1          -1          -1
Number of residues                         I                0
Number of secondary structures             I                0
Number of contracted shells                I               19
Number of primitive shells                 I               32
Pure/Cartesian d shells                    I                0
Pure/Cartesian f shells                    I                0
Highest angular momentum                   I                3
Largest degree of contraction              I                6
Shell types                                I   N=          19
           0           0           0           0           0           1
           1           1          -2          -2          -3           0
           0           0           1           0           0           0
           1
Number of primitives per shell             I   N=          19
           6           2           1           1           1           4
           1           1           1           1           1           3
           1           1           1           3           1           1
           1
Shell to atom map                          I   N=          19
           1           1           1           1           1           1
           1           1           1           1           1           2
           2           2           2           3           3           3
           3
Primitive exponents                        R   N=          32
  2.70323826E+04  4.05238714E+03  9.22327227E+02  2.61240710E+02  8.53546414E+01
  3.10350352E+01  1.22608607E+01  4.99870760E+00  1.17031082E+00  4.64747410E-01
  1.85045364E-01  6.32749548E+01  1.46270494E+01  4.45012235E+00  1.52757996E+00
  5.29351179E-01  1.74784213E-01  2.31400000E+00  6.45000000E-01  1.42800000E+00
  3.40613410E+01  5.12357460E+00  1.16466260E+00  3.27230410E-01  1.03072410E-01
  8.00000000E-01  3.40613410E+01  5.12357460E+00  1.16466260E+00  3.27230410E-01
  1.03072410E-01  8.00000000E-01
Contraction coefficients                   R   N=          32
  5.72273352E-04  4.43532335E-03  2.30201077E-02  9.28224907E-02  2.93785000E-01
  6.74016045E-01  6.38399370E-01  3.95345871E-01  1.00000000E+00  1.00000000E+00
  1.00000000E+00  1.20183322E-02  8.30054218E-02  3.19917439E-01  7.07155429E-01
  1.00000000E+00  1.00000000E+00  1.00000000E+00  1.00000000E+00  1.00000000E+00
  2.54393072E-02  1.90085949E-01  8.52441130E-01  1.00000000E+00  1.00000000E+00
  1.00000000E+00  2.54393072E-02  1.90085949E-01  8.52441130E-01  1.00000000E+00
  1.00000000E+00  1.00000000E+00
Coordinates of each shell                  R   N=          57
 -2.55192962E+00  2.55192962E+00  1.33359862E-01 -2.55192962E+00  2.55192962E+00
  1.33359862E-01 -2.55192962E+00  2.55192962E+00  1.33359862E-01 -2.55192962E+00
  2.55192962E+00  1.33359862E-01 -2.55192962E+00  2.55192962E+00  1.33359862E-01
 -2.55192962E+00  2.55192962E+00  1.33359862E-01 -2.55192962E+00  2.55192962E+00
  1.33359862E-01 -2.55192962E+00  2.55192962E+00  1.33359862E-01 -2.55192962E+00
  2.55192962E+00  1.33359862E-01 -2.55192962E+00  2.55192962E+00  1.33359862E-01
 -2.55192962E+00  2.55192962E+00  1.33359862E-01 -3.00983105E+00  3.42296486E+00
  1.65485017E+00 -3.00983105E+00  3.42296486E+00  1.65485017E+00 -3.00983105E+00
  3.42296486E+00  1.65485017E+00 -3.00983105E+00  3.42296486E+00  1.65485017E+00
 -7.28489421E-01  2.81404597E+00 -5.64990317E-02 -7.28489421E-01  2.81404597E+00
 -5.64990317E-02 -7.28489421E-01  2.81404597E+00 -5.64990317E-02 -7.28489421E-01
  2.81404597E+00 -5.64990317E-02
Num ILSW                                   I              100
ILSW                                       I   N=         100
           0           0           0           0           2           0
           0           0           0           0         402          -1
           5           0           0           0           0           0
           0           0           1           0           0           0
           1           1           0           0           0           0
           0           0      100000           0          -1           0
           0           0           0           0           0           0
           0           0           0           1           0           0
           0 -2000000000           1           0           0           0
           0           0           4          52           0           0
           0           0           5           0           0           0
           0           0           0           0           0           1
           0           0           0           0           0           0
           0           0           0           0           0           0
           0           0           0           0           0           0
           0           0           0           0           0           0
           0           0           0           0
Num RLSW                                   I               52
RLSW                                       R   N=          52
  8.00000000E-01  7.20000000E-01  1.00000000E+00  8.10000000E-01  2.00000000E-01
  0.00000000E+00  0.00000000E+00  1.00000000E+00  0.00000000E+00  0.00000000E+00
  0.00000000E+00  0.00000000E+00  1.00000000E+00  0.00000000E+00  0.00000000E+00
  0.00000000E+00  0.00000000E+00  1.00000000E+00  0.00000000E+00  0.00000000E+00
  0.00000000E+00  0.00000000E+00  1.00000000E+00  0.00000000E+00  0.00000000E+00
  0.00000000E+00  0.00000000E+00  1.00000000E+00  0.00000000E+00  0.00000000E+00
  0.00000000E+00  0.00000000E+00  1.00000000E+00  0.00000000E+00  0.00000000E+00
  0.00000000E+00  0.00000000E+00  0.00000000E+00  1.00000000E+00  1.00000000E+00
  0.00000000E+00  1.00000000E+00  0.00000000E+00  0.00000000E+00  0.00000000E+00
  0.00000000E+00  0.00000000E+00  0.00000000E+00  0.00000000E+00  0.00000000E+00
  0.00000000E+00  0.00000000E+00
ECP-MxAtEC                                 I            20000
ECP-MaxLECP                                I               10
ECP-MaxAtL                                 I           180000
ECP-MxTECP                                 I           900000
ECP-LenNCZ                                 I                0
ECP-KFirst                                 I   N=          30
           0           0           0           0           0           0
           0           0           0           0           0           0
           0           0           0           0           0           0
           0           0           0           0           0           0
           0           0           0           0           0           0
ECP-KLast                                  I   N=          30
           0           0           0           0           0           0
           0           0           0           0           0           0
           0           0           0           0           0           0
           0           0           0           0           0           0
           0           0           0           0           0           0
ECP-LMax                                   I   N=           3
           0           0           0
ECP-LPSkip                                 I   N=           3
           1           1           1
ECP-RNFroz                                 R   N=           3
  0.00000000E+00  0.00000000E+00  0.00000000E+00
ECP-NLP                                    I                0
ECP-CLP1                                   R      0.000000000000000E+00
ECP-CLP2                                   R      0.000000000000000E+00
ECP-ZLP                                    R      0.000000000000000E+00
MxBond                                     I                2
NBond                                      I   N=           3
           2           1           1
IBond                                      I   N=           6
           2           3           1           0           1           0
RBond                                      R   N=           6
  1.00000000E+00  1.00000000E+00  1.00000000E+00  0.00000000E+00  1.00000000E+00
  0.00000000E+00
Virial Ratio                               R      2.004214780926077E+00
SCF Energy                                 R     -7.646270388458990E+01
Total Energy                               R     -7.646270388458990E+01
RMS Density                                R      8.920229495375141E-09
Job Status                                 I                1
Nuclear derivative order                   I                0
External E-field                           R   N=          35
  0.00000000E+00  0.00000000E+00  0.00000000E+00  0.00000000E+00  0.00000000E+00
  0.00000000E+00  0.00000000E+00  0.00000000E+00  0.00000000E+00  0.00000000E+00
  0.00000000E+00  0.00000000E+00  0.00000000E+00  0.00000000E+00  0.00000000E+00
  0.00000000E+00  0.00000000E+00  0.00000000E+00  0.00000000E+00  0.00000000E+00
  0.00000000E+00  0.00000000E+00  0.00000000E+00  0.00000000E+00  0.00000000E+00
  0.00000000E+00  0.00000000E+00  0.00000000E+00  0.00000000E+00  0.00000000E+00
  0.00000000E+00  0.00000000E+00  0.00000000E+00  0.00000000E+00  0.00000000E+00
IOpCl                                      I                0
IROHF                                      I                0
Alpha Orbital Energies                     R   N=          43
 -1.91284026E+01 -1.01114054E+00 -5.33233554E-01 -3.89582777E-01 -3.15804391E-01
  1.24464950E-02  8.77229732E-02  3.54664650E-01  4.02364084E-01  4.24686774E-01
  4.32164671E-01  5.66062345E-01  5.93950493E-01  1.16685585E+00  1.18302465E+00
  1.29431545E+00  1.52420902E+00  1.62814586E+00  1.73612405E+00  1.97959824E+00
  2.04108602E+00  2.09723818E+00  2.27787430E+00  2.37742994E+00  2.54570129E+00
  2.59327098E+00  2.60095153E+00  2.76443125E+00  3.61339000E+00  3.90978297E+00
  5.09693227E+00  5.19073904E+00  5.36466751E+00  5.39236024E+00  5.45985121E+00
  5.97761163E+00  6.19254162E+00  6.29439786E+00  6.36052796E+00  6.40370378E+00
  6.88178424E+00  6.97416506E+00  4.32233725E+01
Alpha MO coefficients                      R   N=        1849
  4.35059505E-01  6.39773972E-01  3.41537590E-02 -2.20895608E-02  8.96510877E-03
  1.07433518E-03  9.17602410E-04  1.08871319E-03 -1.80086036E-03 -1.50969480E-03
 -1.78021957E-03  6.27957423E-04  5.66067441E-04  6.83117948E-04  1.28324395E-05
 -8.78244568E-05  1.25858339E-04  1.22082181E-04  1.27908045E-05 -4.47075147E-05
  4.46431665E-04 -5.99125777E-04 -6.19324213E-04 -5.87969005E-05 -8.44859743E-05
  2.24781093E-04 -1.52936311E-04  1.07714571E-04  9.69926598E-05 -1.98831306E-04
 -7.75456244E-05  8.43339107E-04  1.58932058E-03 -1.91222770E-03  3.14034279E-04
 -5.03559750E-04 -8.95884842E-04  8.26022863E-04  1.62180005E-03 -1.81554136E-03
 -1.14990603E-03 -1.44132089E-04  1.53025065E-04 -9.78544296E-02 -2.30057377E-01
  3.36309572E-01  4.37529386E-01  1.59091650E-01  4.83222640E-02  4.44611407E-02
  5.39850016E-02  4.20032766E-02  3.70454419E-02  4.44059229E-02  6.98954055E-03
  6.10112678E-03  7.28960864E-03  5.56362923E-04 -1.67697033E-03  3.28666372E-03
  2.57197646E-03  4.73361713E-04  7.95661784E-04 -2.92770965E-03  8.20623594E-03
  6.82115609E-03  2.19478901E-03  9.52570425E-04 -2.78639672E-03  2.27065288E-03
 -1.35679987E-03 -1.00830451E-03  2.41177806E-03  1.12205682E-03  9.59374674E-02
  7.13991982E-02  7.30195164E-03  6.76740315E-03 -7.69378649E-03 -1.43384309E-02
  9.01568176E-02  6.78568611E-02  6.99916585E-03 -1.59550984E-02 -9.18674375E-04
  3.82409222E-03 -1.04448145E-03 -2.45345459E-03  3.08734563E-03  7.90305906E-03
  6.64272028E-03  2.96347965E-01 -8.38017361E-02 -2.29703582E-01  2.28733167E-01
 -6.35776064E-02 -1.75557771E-01  9.53563714E-02 -2.67195620E-02 -7.35259456E-02
 -7.62532386E-03  1.53085958E-03 -5.40471477E-03  6.93984914E-03  3.31165177E-03
 -1.51299668E-02  2.65287899E-03 -1.04089744E-02  1.41971785E-02  6.54678745E-03
  7.67066151E-04  4.10195538E-04 -3.07467516E-03 -1.46100976E-03  2.20261637E-03
  2.71968185E-03  3.09720427E-04 -1.48817608E-01 -1.86113849E-01 -6.63761512E-02
  3.65343933E-03  1.09801575E-02  1.60668007E-02  1.47205644E-01  1.85773081E-01
  6.79189298E-02 -1.72228075E-02 -6.99568098E-03 -5.31724813E-03  3.66959560E-02
  8.76750806E-02 -1.37305160E-01 -1.93204768E-01 -2.27514846E-01  2.53179677E-01
  2.13678186E-01  2.52532103E-01  1.95802957E-01  1.64214833E-01  1.93668207E-01
  1.45525050E-01  1.22819192E-01  1.45151565E-01  4.79378407E-04  1.40863494E-03
  3.99539863E-03  1.95596822E-03  2.35358912E-03  1.25574867E-03  1.69340798E-02
  1.33787729E-02  1.84809753E-03  1.39402059E-02  4.12206773E-05 -1.50913488E-03
  2.29038648E-03 -8.59611034E-04  7.90147912E-04  1.52132444E-03  1.58484882E-03
  8.60097589E-02  1.21464373E-01  4.40138663E-02  1.92517254E-02  1.60712549E-03
 -3.82979740E-03  8.75831060E-02  1.25021362E-01  4.81639937E-02 -6.96390753E-03
  8.61204324E-03  1.58478781E-02 -8.28105711E-10 -8.79892917E-10  1.93718438E-09
  1.94587090E-09 -4.22969820E-08 -8.31946518E-02  3.96287767E-01 -2.51907986E-01
 -6.68245598E-02  3.18310769E-01 -2.02340410E-01 -5.91986887E-02  2.81985734E-01
 -1.79249711E-01 -2.48629755E-03 -1.79862663E-03  1.06764324E-03 -2.31035274E-03
  1.69052445E-03 -1.46974601E-02 -1.10701924E-02  6.21932890E-03 -1.39465797E-02
  1.06517409E-02 -2.15860149E-03  1.23260465E-03 -7.99916617E-04 -3.15265789E-03
 -2.09393485E-03 -7.57895719E-04  2.44737820E-03 -2.67951609E-09  3.22287871E-08
 -7.67530823E-09 -4.47250268E-03  2.13042449E-02 -1.35424632E-02 -5.99803956E-10
  5.46287376E-08 -2.00214106E-08 -4.37616431E-03  2.08452922E-02 -1.32507116E-02
 -3.35267690E-02 -8.44236270E-02  1.90156331E-01 -3.01151978E-02  1.15730528E+00
  1.07385395E-01  8.15039164E-02  9.27525998E-02  7.90281149E-02  5.85940711E-02
  6.60773460E-02  2.15975977E-01  1.66148449E-01  1.90047705E-01  1.06192231E-04
  2.02251670E-03 -8.79434844E-05 -1.11159651E-03  8.44404272E-04 -1.30432535E-04
  8.98002229E-03  1.22409980E-03 -2.63845900E-03  4.98350838E-03  9.66433469E-05
 -5.15159849E-04  7.80055036E-04 -3.97134304E-04  2.49989298E-04  5.84730396E-04
  4.83038401E-04 -3.65375849E-02 -8.83232345E-02 -9.02787152E-01  1.10666456E-02
 -1.47144984E-02 -2.68028844E-02 -4.36085624E-02 -1.02157530E-01 -9.59949334E-01
 -3.20064695E-02 -3.46663621E-03  5.11687917E-03  8.80334476E-04  2.35438856E-03
 -7.53956005E-03  1.26207005E-02 -5.85685043E-02  1.98272594E-01 -5.50577842E-02
 -1.52094990E-01  9.70399294E-02 -2.47887701E-02 -7.10445163E-02  5.29487277E-01
 -1.49614220E-01 -4.10232366E-01  8.54842952E-04 -6.36520195E-05  5.35340976E-04
 -8.83112818E-04 -3.55481124E-04  1.25509742E-02 -2.51263098E-03  9.11665575E-03
 -1.12422456E-02 -5.33604598E-03  1.03376388E-03  1.15912604E-03  8.54145481E-04
 -1.74275856E-03  5.12638087E-04 -5.23956691E-05 -1.21542963E-03  3.29372092E-02
  2.08754777E-02  1.65795079E+00 -7.68604469E-03  2.46939875E-02  4.13856034E-02
 -3.71237339E-02 -3.41230619E-02 -1.57523308E+00 -4.34323355E-02 -8.48286673E-03
  9.99104143E-04  2.30717109E-03  5.15988009E-03 -3.07610016E-03 -3.25177251E-02
  2.96083228E-02 -1.01378206E-01  1.80150333E-02  6.18213459E-02 -2.83088016E-01
  6.46530243E-02  1.95200955E-01 -9.23587676E-01  2.38517753E-01  6.80244852E-01
 -1.99326860E-02  2.91887468E-03 -1.32358629E-02  1.93484673E-02  8.59161763E-03
  7.65541517E-02 -1.59889890E-02  5.34805119E-02 -7.00541554E-02 -3.39360611E-02
 -5.90271242E-04  9.01076423E-04  8.86788504E-03  1.36180796E-03 -4.72474240E-03
 -7.24633575E-03 -2.60818542E-03 -1.13823910E-01 -1.34986430E+00  4.90911245E-01
 -4.57454644E-02  3.96793523E-02  7.75291897E-02  1.30944908E-01  1.53359909E+00
 -6.36572598E-01 -9.33651047E-02 -2.94174247E-03  2.62068009E-02  3.60099829E-02
  7.90116073E-02  2.09634322E-02 -8.53908073E-01 -5.50479381E-01  2.22261446E-02
  1.77669931E-02  2.06104334E-02  1.63370656E-02 -1.25149247E-02 -2.50815592E-02
 -7.04472713E-01 -7.20741376E-01 -9.01175713E-01  3.09366285E-03 -8.03671954E-03
  1.46023188E-02  1.06931250E-02  1.39099040E-03 -1.58971105E-02  1.24210484E-02
 -5.83296328E-02 -2.86343372E-02 -1.24602055E-02 -3.82285358E-03  9.46048701E-03
 -7.47622362E-03  4.59555623E-03  5.18465585E-03 -7.55595883E-03 -2.56416523E-03
  1.00095511E-01  1.62872207E+00 -4.29092079E-01  1.48578958E-02 -5.39219943E-02
 -8.97340322E-02  8.42661558E-02  1.38669139E+00 -4.57299580E-01 -7.70770900E-02
 -1.94961457E-02 -5.21491106E-03 -4.86333101E-08 -1.05225478E-07 -3.07593509E-08
  1.25307362E-06 -2.12321608E-07  5.55181330E-02 -2.64454848E-01  1.68105547E-01
  1.22294364E-01 -5.82536313E-01  3.70299870E-01 -2.15107366E-01  1.02464529E+00
 -6.51333669E-01  3.76150944E-03  2.76400612E-03 -1.60624465E-03  3.52362861E-03
 -2.62206149E-03 -3.97272425E-03 -3.07669067E-03  1.66339889E-03 -3.82550016E-03
  3.00613436E-03  7.56306600E-04 -5.56893358E-04  2.71620034E-04  1.11537217E-03
  8.22871899E-04  2.19678800E-04 -9.58643067E-04 -4.98971910E-08 -9.64857430E-07
  9.44237622E-08  6.99457401E-04 -3.33173663E-03  2.11795138E-03 -9.21738155E-08
 -1.33678153E-06  5.42120641E-07  4.23031281E-04 -2.01472576E-03  1.28070860E-03
  2.88686671E-03  7.47103667E-03  4.74814267E-03 -1.02054162E-01 -1.60674785E-01
 -2.03422747E-01 -1.74041647E-01 -2.06611180E-01 -4.39483537E-01 -3.93304898E-01
 -4.73583601E-01  5.77441213E-01  3.99812384E-01  4.38259944E-01  1.33461055E-03
 -8.84697103E-03  1.50652354E-03  2.94210071E-03 -4.38045799E-03 -8.30943060E-03
  1.33059964E-03 -8.20371797E-03  5.78352088E-03  2.27984188E-03 -1.61863106E-03
  4.16551711E-03 -4.10047310E-03  2.04917828E-03  2.34578662E-03 -3.00232267E-03
 -1.14882091E-03  8.12755881E-02  7.81671022E-01 -5.19089019E-01 -9.20101310E-03
 -1.85079593E-02 -2.60769967E-02  7.01675292E-02  5.96171437E-01 -5.32786134E-01
 -6.20185823E-03 -1.08474026E-02 -1.50163240E-02  1.74608853E-03  3.55206295E-03
  1.82196539E-03 -8.14265914E-02  2.42108170E-01 -2.73069786E-01  7.49298782E-02
  2.08059098E-01 -5.74378513E-01  1.68148597E-01  4.54215334E-01  1.63779020E+00
 -3.91092994E-01 -1.15613955E+00  6.72648346E-03 -6.41236638E-04  3.79769473E-03
 -7.23338731E-03 -3.07334657E-03 -3.54740606E-02  5.20871724E-03 -2.08073752E-02
  3.67135787E-02  1.66845537E-02 -1.22431066E-04 -1.92276436E-03 -7.96553405E-04
  3.74838480E-04 -3.16470224E-04  1.82558619E-03  1.37748280E-03 -6.14154659E-02
 -1.83975244E-01  1.57767515E+00  5.25606982E-03 -1.65407445E-02 -2.77568495E-02
  6.07296980E-02 -1.78432057E-02 -1.62487869E+00  5.19616299E-02  1.05721271E-02
 -5.29265016E-04  5.17684394E-02  1.07175734E-01  1.00700172E-01 -2.26150390E+00
  4.79074981E+00 -2.96154816E-02 -4.15207265E-02 -5.55372786E-02  2.21910726E-02
 -9.81257819E-03 -2.27652312E-02  6.53260435E-01  6.60070973E-01  8.22642436E-01
 -1.47246491E-03  7.42234317E-03 -1.14364619E-02 -1.03673432E-02 -1.21449236E-03
  6.93018019E-03 -1.17939292E-02  4.18788845E-02  2.89057631E-02  1.06998969E-02
  2.95626366E-03 -7.21834103E-03  4.53589500E-03 -3.47722590E-03 -3.67922783E-03
  6.31537467E-03  2.05399497E-03  2.57072160E-02 -8.90143733E-01 -1.07914499E+00
 -3.80650144E-03  4.67250883E-02  7.47624538E-02  1.91925600E-02 -8.92106118E-01
 -8.44379001E-01  7.99565812E-02  2.17208206E-02  7.76367831E-03  3.61622968E-03
  9.23820637E-03 -3.25254196E-02 -9.81772420E-02  9.07315219E-01  4.98714826E-02
  4.20546436E-02  4.96876080E-02  7.78213911E-02  7.33634916E-02  8.97102666E-02
  3.31320326E-01  2.95558034E-01  3.55534374E-01 -2.01551773E-04 -9.46118275E-03
 -1.58050285E-03  3.07557056E-03 -5.16123118E-03 -1.62787157E-02 -4.01213438E-01
 -2.01277023E-01  3.10528830E-02 -2.81256928E-01  2.61842799E-03 -4.33347472E-03
  3.56255536E-03 -3.16672298E-03 -2.70738416E-03  4.01642263E-03  5.04493541E-04
  3.78870575E-02 -5.95620399E-01 -5.31752124E-02 -4.11908662E-01 -9.25923421E-02
 -9.62503767E-03  3.78180319E-02 -5.53562117E-01 -4.45108661E-02  3.53921580E-02
 -2.24879362E-01 -3.65456367E-01  1.25376721E-10  3.53757050E-10 -8.22410882E-10
 -4.76730449E-09  2.32025215E-08  2.45935389E-04 -1.17148083E-03  7.44676898E-04
 -1.26707538E-03  6.03559919E-03 -3.83664773E-03  1.69401672E-03 -8.06920091E-03
  5.12935803E-03  4.62737252E-03 -2.51311458E-03 -3.21739443E-03  4.28873845E-04
  5.66696433E-03  2.83869613E-01 -1.72784852E-01 -2.01281608E-01  1.40134333E-02
  3.75639080E-01 -7.25234217E-03 -4.86280975E-05  8.76192768E-04 -8.59907908E-04
 -4.67831524E-04  3.49715480E-03 -4.71407882E-03 -1.04615322E-09 -3.75044084E-09
 -6.95093784E-09  7.23048612E-02 -3.44415609E-01  2.18934439E-01  1.11698135E-09
 -2.02452611E-08  2.70245648E-09 -7.61128888E-02  3.62554638E-01 -2.30464885E-01
  1.56899806E-10  3.96299593E-10  5.37224064E-09 -3.20830374E-08  1.10866120E-08
 -1.73188500E-02  8.24962773E-02 -5.24403503E-02 -8.14453932E-03  3.87954924E-02
 -2.46611203E-02 -3.71987924E-02  1.77192006E-01 -1.12635517E-01  7.05680977E-04
  2.33641035E-04 -3.61149282E-04  4.72872698E-04 -6.34745710E-05  3.82834966E-01
  2.83223681E-01 -1.63076167E-01  3.59888051E-01 -2.69739704E-01 -2.21940362E-03
  9.31241669E-03  1.20864143E-03 -3.49327504E-04 -6.52563050E-03  5.07331141E-03
  5.37255856E-03 -5.83158841E-09  1.63852791E-08 -8.43828138E-09  6.81017192E-02
 -3.24394393E-01  2.06207558E-01 -7.54624628E-09  2.27215506E-08 -4.58515509E-09
  6.51311882E-02 -3.10244667E-01  1.97213015E-01 -7.99660050E-04 -3.24180838E-03
  4.60287690E-02 -1.68728994E-01 -1.25907523E-01 -8.33893208E-02  2.99794668E-02
  7.47020518E-02  6.38596518E-01 -2.31058805E-01 -5.74390657E-01  7.07819386E-01
 -2.33705786E-01 -6.01416165E-01  5.99408787E-03 -1.21052969E-03  4.11235149E-03
 -5.56539809E-03 -2.67535899E-03 -7.46209209E-01  1.62440664E-01 -5.53568394E-01
  6.53184952E-01  3.17637099E-01 -7.57392283E-03 -6.20444453E-03 -4.98198230E-02
  9.90739155E-03  2.03071710E-02  2.69900702E-02  1.86562997E-02 -3.88109102E-01
  2.32017904E+00 -5.17486274E-01 -1.19776694E-01 -2.77539287E-01 -3.97052292E-01
  3.61341408E-01 -1.95838148E+00  4.92678039E-01  3.19225689E-01  1.74558295E-01
  1.69178622E-01 -1.52767380E-02 -5.09693006E-02  3.82155180E-01 -6.61856663E-01
 -1.77230385E+00  5.73420939E-02  5.09612133E-02  6.12316386E-02 -2.53791239E-01
 -2.60434655E-01 -3.25884826E-01 -5.64187285E-01 -4.63371364E-01 -5.42622859E-01
  6.21217908E-04  2.81394349E-04  4.77212169E-03  2.86180893E-03  2.11030251E-03
 -8.14219427E-02  4.15794686E-01 -7.83530147E-01 -7.01253511E-01 -1.40898537E-01
 -1.24616126E-02  3.69048046E-02 -3.14646886E-02  1.81203533E-02  1.30861561E-02
 -3.16122485E-02 -1.51131865E-02 -3.36613192E-01  2.03837676E+00 -1.89912898E-01
  1.18581634E-01 -1.21107561E-01 -2.29682267E-01 -3.68727296E-01  2.00784416E+00
 -2.09026754E-01 -2.13153445E-01 -2.97615556E-02  2.35764435E-02  1.84702274E-04
  2.19792556E-04  1.07590036E-02 -6.63498474E-02  4.16931806E-02 -1.29108025E-01
  3.82420187E-02  1.02799205E-01  2.33697080E-01 -9.00860149E-02 -2.18898702E-01
 -2.66314194E-01  8.92121816E-02  2.28296112E-01  8.14715466E-03 -8.29561573E-04
  5.65800950E-03 -7.85846127E-03 -3.21342455E-03 -2.97280235E-01  5.59645541E-02
 -1.87400907E-01  2.91535171E-01  1.39103974E-01 -5.02762379E-03 -6.32885579E-03
 -2.25114518E-02  7.77583336E-03  6.35730160E-03  1.22279238E-02  1.06378614E-02
 -1.34647295E-01  5.12504298E-01 -3.85300507E-01  7.60277701E-01  1.29611756E-01
 -4.71898034E-02  1.37575618E-01 -5.00310162E-01  3.70223598E-01  1.17732649E-01
 -3.93375694E-01 -6.57719143E-01  1.41403414E-02  6.13632753E-02 -7.87412916E-01
  2.48313840E+00 -1.38832495E-01 -2.43709665E-01 -2.11340573E-01 -2.51982185E-01
  7.08191586E-01  6.79718621E-01  8.35409841E-01 -3.27088949E-02 -4.07618247E-02
 -5.33218121E-02  7.86644603E-04  2.33369346E-03 -1.67890051E-03 -3.64741913E-03
 -2.84571465E-04 -2.39483705E-02 -1.82797025E-01 -1.59962727E-01 -1.63925772E-02
 -1.51086998E-01  3.69964987E-02 -9.20580960E-02  6.13726307E-02 -4.34799483E-02
 -4.81066888E-02  7.80709804E-02  2.60624619E-02  6.39355578E-01 -1.89612832E+00
  4.98266132E-01 -4.89225292E-02  4.48783018E-01  7.22157670E-01  6.88121286E-01
 -1.83206352E+00  4.96544184E-01  7.19684824E-01  1.77539337E-01  4.16132350E-02
 -2.72294070E-09 -1.04347173E-08  8.64464525E-08 -2.03850260E-07 -1.65322313E-08
  5.43565729E-02 -2.58920815E-01  1.64588068E-01 -2.83810586E-02  1.35189401E-01
 -8.59358632E-02  8.26732630E-02 -3.93804209E-01  2.50329256E-01 -4.32006142E-03
 -4.28027087E-03  1.61259130E-03 -4.77729307E-03  4.67437645E-03  3.96085217E-01
  4.15961229E-01 -1.42912022E-01  4.53544577E-01 -4.63946589E-01  1.99715814E-04
  1.04636391E-02  8.06281733E-04 -6.18994239E-04 -7.35465390E-03  3.95219000E-03
  8.33056739E-03 -6.36883626E-08  1.89087234E-07 -4.25640054E-08 -1.10302294E-01
  5.25411674E-01 -3.33988170E-01 -7.19146404E-08  1.94407430E-07 -6.22227265E-08
 -1.47988123E-01  7.04923506E-01 -4.48098291E-01 -3.01626172E-10 -1.24006518E-09
  1.05788175E-08 -2.45161425E-08  1.41662310E-09  1.05246092E-02 -5.01326939E-02
  3.18678205E-02 -4.00934563E-03  1.90979425E-02 -1.21399766E-02  1.36543216E-02
 -6.50407294E-02  4.13443972E-02 -8.17016601E-03  3.24880466E-03  5.43119960E-03
 -1.54217859E-03 -8.21856760E-03  6.55070476E-01 -2.67494849E-01 -4.36936558E-01
  1.19018456E-01  6.69494602E-01 -3.26114704E-03  1.01199610E-03  9.32840848E-04
  6.60616597E-04 -5.14397969E-04  2.87121687E-03 -2.44101219E-03 -6.12073057E-09
  4.96157465E-09 -7.12419762E-11 -1.51867599E-01  7.23403121E-01 -4.59845186E-01
 -9.21903934E-09  3.37618730E-08 -1.09854703E-08  1.08722161E-01 -5.17885068E-01
  3.29203665E-01  3.75127449E-04  2.17890147E-04  2.63444649E-03  5.67451963E-02
 -5.61617657E-02  3.14619193E-01 -8.52044790E-02 -2.37944508E-01 -1.64717008E+00
  4.60371683E-01  1.26822260E+00  2.63650266E-01 -8.42232944E-02 -2.19568074E-01
 -2.52713126E-02  3.75201631E-03 -1.64360557E-02  2.47952219E-02  1.10912506E-02
  8.64614048E-02  5.93610233E-03  5.91614029E-02 -9.04736756E-02 -2.75321509E-02
  4.68088909E-03  2.12709415E-02  9.52300131E-02 -4.20312174E-03 -4.11400332E-02
 -7.21945945E-02 -3.84288503E-02  4.57011684E-01 -1.84795838E+00  7.70766329E-01
 -2.02753981E-01  5.47721787E-01  9.28606906E-01 -5.52879730E-01  1.94056014E+00
 -7.81962295E-01 -1.07731896E+00 -2.12547117E-01  2.14258984E-02  1.66541779E-02
  6.26053351E-02 -5.79010436E-01  1.29437760E+00  5.71311121E-01  3.00013500E-01
  2.32271910E-01  2.66315529E-01  1.94965322E-02  1.24706154E-02  1.31791353E-02
  5.33952967E-01  4.22405452E-01  4.88162682E-01  1.69020728E-03  2.74314313E-03
  2.81644499E-03 -1.51858183E-03  1.55030210E-03  2.01711520E-02  7.76273352E-01
  3.31264270E-01 -9.04895797E-02  5.22703241E-01  2.09679901E-02 -4.55275001E-02
  2.41890127E-02 -2.26197859E-02 -2.70924703E-02  4.04672923E-02  9.54315246E-03