Title Card Required                                                     
SP        RTPSSh                                                      GenECP              
Number of atoms                            I               11
Info1-9                                    I   N=           9
          29          28           0           0           0         110
           1          18       -3502
Full Title                                 C   N=           2
Title Card Required     
Route                                      C   N=           2
# TPSSh/genecp nosymm   
Charge                                     I                0
Multiplicity                               I                1
Number of electrons                        I               84
Number of alpha electrons                  I               42
Number of beta electrons                   I               42
Number of basis functions                  I              223
Number of independent functions            I              223
Number of point charges in /Mol/           I                0
Number of translation vectors              I                0
Atomic numbers                             I   N=          11
          24           6           8           6           8           6
           8           6           8           6           8
Nuclear charges                            R   N=          11
  1.40000000E+01  6.00000000E+00  8.00000000E+00  6.00000000E+00  8.00000000E+00
  6.00000000E+00  8.00000000E+00  6.00000000E+00  8.00000000E+00  6.00000000E+00
  8.00000000E+00
Current cartesian coordinates              R   N=          33
  0.00000000E+00  0.00000000E+00  2.83748047E-01  0.00000000E+00  3.60544438E+00
  3.70747258E-01 -2.22382970E-02  5.76982708E+00  4.81685520E-01  3.60208822E+00
 -1.54796915E-01  3.70754817E-01  5.76352862E+00 -2.69869898E-01  4.81574026E-01
  0.00000000E+00 -3.60544438E+00  3.70747258E-01  2.22382970E-02 -5.76982708E+00
  4.81685520E-01  0.00000000E+00  0.00000000E+00 -3.37821804E+00  0.00000000E+00
  0.00000000E+00 -5.54388953E+00 -3.60208822E+00  1.54796915E-01  3.70754817E-01
 -5.76352862E+00  2.69869898E-01  4.81574026E-01
Number of symbols in /Mol/                 I                0
Force Field                                I                0
Atom Types                                 C   N=          11
                                                            
                                                            
            
Int Atom Types                             I   N=          11
           0           0           0           0           0           0
           0           0           0           0           0
MM charges                                 R   N=          11
  0.00000000E+00  0.00000000E+00  0.00000000E+00  0.00000000E+00  0.00000000E+00
  0.00000000E+00  0.00000000E+00  0.00000000E+00  0.00000000E+00  0.00000000E+00
  0.00000000E+00
Integer atomic weights                     I   N=          11
          52          12          16          12          16          12
          16          12          16          12          16
Real atomic weights                        R   N=          11
  5.19405097E+01  1.20000000E+01  1.59949146E+01  1.20000000E+01  1.59949146E+01
  1.20000000E+01  1.59949146E+01  1.20000000E+01  1.59949146E+01  1.20000000E+01
  1.59949146E+01
Atom fragment info                         I   N=          11
           0           0           0           0           0           0
           0           0           0           0           0
Atom residue num                           I   N=          11
           0           0           0           0           0           0
           0           0           0           0           0
Nuclear spins                              I   N=          11
           0           0           0           0           0           0
           0           0           0           0           0
Nuclear ZEff                               R   N=          11
 -1.16400000E+01 -3.60000000E+00 -5.60000000E+00 -3.60000000E+00 -5.60000000E+00
 -3.60000000E+00 -5.60000000E+00 -3.60000000E+00 -5.60000000E+00 -3.60000000E+00
 -5.60000000E+00
Nuclear ZNuc                               R   N=          11
  2.40000000E+01  6.00000000E+00  8.00000000E+00  6.00000000E+00  8.00000000E+00
  6.00000000E+00  8.00000000E+00  6.00000000E+00  8.00000000E+00  6.00000000E+00
  8.00000000E+00
Nuclear QMom                               R   N=          11
  0.00000000E+00  0.00000000E+00  0.00000000E+00  0.00000000E+00  0.00000000E+00
  0.00000000E+00  0.00000000E+00  0.00000000E+00  0.00000000E+00  0.00000000E+00
  0.00000000E+00
Nuclear GFac                               R   N=          11
  0.00000000E+00  0.00000000E+00  0.00000000E+00  0.00000000E+00  0.00000000E+00
  0.00000000E+00  0.00000000E+00  0.00000000E+00  0.00000000E+00  0.00000000E+00
  0.00000000E+00
MicOpt                                     I   N=          11
          -1          -1          -1          -1          -1          -1
          -1          -1          -1          -1          -1
Number of residues                         I                0
Number of secondary structures             I                0
Number of contracted shells                I               65
Number of primitive shells                 I              142
Pure/Cartesian d shells                    I                0
Pure/Cartesian f shells                    I                0
Highest angular momentum                   I                3
Largest degree of contraction              I                6
Shell types                                I   N=          65
           0           0           0           0           0           0
           1           1           1           1           1          -2
          -2          -2          -3           0          -1          -1
          -1          -2           0          -1          -1          -1
          -2           0          -1          -1          -1          -2
           0          -1          -1          -1          -2           0
          -1          -1          -1          -2           0          -1
          -1          -1          -2           0          -1          -1
          -1          -2           0          -1          -1          -1
          -2           0          -1          -1          -1          -2
           0          -1          -1          -1          -2
Number of primitives per shell             I   N=          65
           3           1           1           1           1           1
           2           2           1           1           1           4
           1           1           1           6           3           1
           1           1           6           3           1           1
           1           6           3           1           1           1
           6           3           1           1           1           6
           3           1           1           1           6           3
           1           1           1           6           3           1
           1           1           6           3           1           1
           1           6           3           1           1           1
           6           3           1           1           1
Shell to atom map                          I   N=          65
           1           1           1           1           1           1
           1           1           1           1           1           1
           1           1           1           2           2           2
           2           2           3           3           3           3
           3           4           4           4           4           4
           5           5           5           5           5           6
           6           6           6           6           7           7
           7           7           7           8           8           8
           8           8           9           9           9           9
           9          10          10          10          10          10
          11          11          11          11          11
Primitive exponents                        R   N=         142
  1.40534500E+01  1.17352180E+01  5.90491500E+00  1.63466500E+00  6.62931000E-01
  9.78000000E-02  3.77050000E-02  1.00000000E-02  5.13176640E+01  9.32149800E+00
  3.74112100E+00  1.51021400E+00  5.37956000E-01  9.34080000E-02  2.66450000E-02
  2.67814390E+01  8.23164000E+00  2.78164500E+00  9.03678000E-01  2.49258000E-01
  7.00000000E-02  1.60000000E+00  4.56324000E+03  6.82024000E+02  1.54973000E+02
  4.44553000E+01  1.30290000E+01  1.82773000E+00  2.09642000E+01  4.80331000E+00
  1.45933000E+00  4.83456000E-01  1.45585000E-01  6.26000000E-01  8.58850000E+03
  1.29723000E+03  2.99296000E+02  8.73771000E+01  2.56789000E+01  3.74004000E+00
  4.21175000E+01  9.62837000E+00  2.85332000E+00  9.05661000E-01  2.55611000E-01
  1.29200000E+00  4.56324000E+03  6.82024000E+02  1.54973000E+02  4.44553000E+01
  1.30290000E+01  1.82773000E+00  2.09642000E+01  4.80331000E+00  1.45933000E+00
  4.83456000E-01  1.45585000E-01  6.26000000E-01  8.58850000E+03  1.29723000E+03
  2.99296000E+02  8.73771000E+01  2.56789000E+01  3.74004000E+00  4.21175000E+01
  9.62837000E+00  2.85332000E+00  9.05661000E-01  2.55611000E-01  1.29200000E+00
  4.56324000E+03  6.82024000E+02  1.54973000E+02  4.44553000E+01  1.30290000E+01
  1.82773000E+00  2.09642000E+01  4.80331000E+00  1.45933000E+00  4.83456000E-01
  1.45585000E-01  6.26000000E-01  8.58850000E+03  1.29723000E+03  2.99296000E+02
  8.73771000E+01  2.56789000E+01  3.74004000E+00  4.21175000E+01  9.62837000E+00
  2.85332000E+00  9.05661000E-01  2.55611000E-01  1.29200000E+00  4.56324000E+03
  6.82024000E+02  1.54973000E+02  4.44553000E+01  1.30290000E+01  1.82773000E+00
  2.09642000E+01  4.80331000E+00  1.45933000E+00  4.83456000E-01  1.45585000E-01
  6.26000000E-01  8.58850000E+03  1.29723000E+03  2.99296000E+02  8.73771000E+01
  2.56789000E+01  3.74004000E+00  4.21175000E+01  9.62837000E+00  2.85332000E+00
  9.05661000E-01  2.55611000E-01  1.29200000E+00  4.56324000E+03  6.82024000E+02
  1.54973000E+02  4.44553000E+01  1.30290000E+01  1.82773000E+00  2.09642000E+01
  4.80331000E+00  1.45933000E+00  4.83456000E-01  1.45585000E-01  6.26000000E-01
  8.58850000E+03  1.29723000E+03  2.99296000E+02  8.73771000E+01  2.56789000E+01
  3.74004000E+00  4.21175000E+01  9.62837000E+00  2.85332000E+00  9.05661000E-01
  2.55611000E-01  1.29200000E+00
Contraction coefficients                   R   N=         142
  8.85624164E-01 -1.03013219E+00 -8.26729154E-01  1.00000000E+00  1.00000000E+00
  1.00000000E+00  1.00000000E+00  1.00000000E+00  2.96719864E-02 -1.01275953E+00
  2.57746192E-01  7.85917585E-01  1.00000000E+00  1.00000000E+00  1.00000000E+00
  3.49700132E-02  1.72195065E-01  4.27032162E-01  5.92939224E-01  1.00000000E+00
  1.00000000E+00  1.00000000E+00  1.96665025E-03  1.52306019E-02  7.61269097E-02
  2.60801033E-01  6.16462078E-01  2.21006028E-01  1.14660081E-01  9.19999648E-01
 -3.03068213E-03  1.00000000E+00  1.00000000E+00  1.00000000E+00  1.89515008E-03
  1.43859006E-02  7.07320031E-02  2.40001011E-01  5.94797026E-01  2.80802012E-01
  1.13889012E-01  9.20811101E-01 -3.27447036E-03  1.00000000E+00  1.00000000E+00
  1.00000000E+00  1.96665025E-03  1.52306019E-02  7.61269097E-02  2.60801033E-01
  6.16462078E-01  2.21006028E-01  1.14660081E-01  9.19999648E-01 -3.03068213E-03
  1.00000000E+00  1.00000000E+00  1.00000000E+00  1.89515008E-03  1.43859006E-02
  7.07320031E-02  2.40001011E-01  5.94797026E-01  2.80802012E-01  1.13889012E-01
  9.20811101E-01 -3.27447036E-03  1.00000000E+00  1.00000000E+00  1.00000000E+00
  1.96665025E-03  1.52306019E-02  7.61269097E-02  2.60801033E-01  6.16462078E-01
  2.21006028E-01  1.14660081E-01  9.19999648E-01 -3.03068213E-03  1.00000000E+00
  1.00000000E+00  1.00000000E+00  1.89515008E-03  1.43859006E-02  7.07320031E-02
  2.40001011E-01  5.94797026E-01  2.80802012E-01  1.13889012E-01  9.20811101E-01
 -3.27447036E-03  1.00000000E+00  1.00000000E+00  1.00000000E+00  1.96665025E-03
  1.52306019E-02  7.61269097E-02  2.60801033E-01  6.16462078E-01  2.21006028E-01
  1.14660081E-01  9.19999648E-01 -3.03068213E-03  1.00000000E+00  1.00000000E+00
  1.00000000E+00  1.89515008E-03  1.43859006E-02  7.07320031E-02  2.40001011E-01
  5.94797026E-01  2.80802012E-01  1.13889012E-01  9.20811101E-01 -3.27447036E-03
  1.00000000E+00  1.00000000E+00  1.00000000E+00  1.96665025E-03  1.52306019E-02
  7.61269097E-02  2.60801033E-01  6.16462078E-01  2.21006028E-01  1.14660081E-01
  9.19999648E-01 -3.03068213E-03  1.00000000E+00  1.00000000E+00  1.00000000E+00
  1.89515008E-03  1.43859006E-02  7.07320031E-02  2.40001011E-01  5.94797026E-01
  2.80802012E-01  1.13889012E-01  9.20811101E-01 -3.27447036E-03  1.00000000E+00
  1.00000000E+00  1.00000000E+00
P(S=P) Contraction coefficients            R   N=         142
  0.00000000E+00  0.00000000E+00  0.00000000E+00  0.00000000E+00  0.00000000E+00
  0.00000000E+00  0.00000000E+00  0.00000000E+00  0.00000000E+00  0.00000000E+00
  0.00000000E+00  0.00000000E+00  0.00000000E+00  0.00000000E+00  0.00000000E+00
  0.00000000E+00  0.00000000E+00  0.00000000E+00  0.00000000E+00  0.00000000E+00
  0.00000000E+00  0.00000000E+00  0.00000000E+00  0.00000000E+00  0.00000000E+00
  0.00000000E+00  0.00000000E+00  0.00000000E+00  4.02486927E-02  2.37593957E-01
  8.15853851E-01  1.00000000E+00  1.00000000E+00  0.00000000E+00  0.00000000E+00
  0.00000000E+00  0.00000000E+00  0.00000000E+00  0.00000000E+00  0.00000000E+00
  3.65113974E-02  2.37152983E-01  8.19701941E-01  1.00000000E+00  1.00000000E+00
  0.00000000E+00  0.00000000E+00  0.00000000E+00  0.00000000E+00  0.00000000E+00
  0.00000000E+00  0.00000000E+00  4.02486927E-02  2.37593957E-01  8.15853851E-01
  1.00000000E+00  1.00000000E+00  0.00000000E+00  0.00000000E+00  0.00000000E+00
  0.00000000E+00  0.00000000E+00  0.00000000E+00  0.00000000E+00  3.65113974E-02
  2.37152983E-01  8.19701941E-01  1.00000000E+00  1.00000000E+00  0.00000000E+00
  0.00000000E+00  0.00000000E+00  0.00000000E+00  0.00000000E+00  0.00000000E+00
  0.00000000E+00  4.02486927E-02  2.37593957E-01  8.15853851E-01  1.00000000E+00
  1.00000000E+00  0.00000000E+00  0.00000000E+00  0.00000000E+00  0.00000000E+00
  0.00000000E+00  0.00000000E+00  0.00000000E+00  3.65113974E-02  2.37152983E-01
  8.19701941E-01  1.00000000E+00  1.00000000E+00  0.00000000E+00  0.00000000E+00
  0.00000000E+00  0.00000000E+00  0.00000000E+00  0.00000000E+00  0.00000000E+00
  4.02486927E-02  2.37593957E-01  8.15853851E-01  1.00000000E+00  1.00000000E+00
  0.00000000E+00  0.00000000E+00  0.00000000E+00  0.00000000E+00  0.00000000E+00
  0.00000000E+00  0.00000000E+00  3.65113974E-02  2.37152983E-01  8.19701941E-01
  1.00000000E+00  1.00000000E+00  0.00000000E+00  0.00000000E+00  0.00000000E+00
  0.00000000E+00  0.00000000E+00  0.00000000E+00  0.00000000E+00  4.02486927E-02
  2.37593957E-01  8.15853851E-01  1.00000000E+00  1.00000000E+00  0.00000000E+00
  0.00000000E+00  0.00000000E+00  0.00000000E+00  0.00000000E+00  0.00000000E+00
  0.00000000E+00  3.65113974E-02  2.37152983E-01  8.19701941E-01  1.00000000E+00
  1.00000000E+00  0.00000000E+00
Coordinates of each shell                  R   N=         195
  0.00000000E+00  0.00000000E+00  2.83748047E-01  0.00000000E+00  0.00000000E+00
  2.83748047E-01  0.00000000E+00  0.00000000E+00  2.83748047E-01  0.00000000E+00
  0.00000000E+00  2.83748047E-01  0.00000000E+00  0.00000000E+00  2.83748047E-01
  0.00000000E+00  0.00000000E+00  2.83748047E-01  0.00000000E+00  0.00000000E+00
  2.83748047E-01  0.00000000E+00  0.00000000E+00  2.83748047E-01  0.00000000E+00
  0.00000000E+00  2.83748047E-01  0.00000000E+00  0.00000000E+00  2.83748047E-01
  0.00000000E+00  0.00000000E+00  2.83748047E-01  0.00000000E+00  0.00000000E+00
  2.83748047E-01  0.00000000E+00  0.00000000E+00  2.83748047E-01  0.00000000E+00
  0.00000000E+00  2.83748047E-01  0.00000000E+00  0.00000000E+00  2.83748047E-01
  0.00000000E+00  3.60544438E+00  3.70747258E-01  0.00000000E+00  3.60544438E+00
  3.70747258E-01  0.00000000E+00  3.60544438E+00  3.70747258E-01  0.00000000E+00
  3.60544438E+00  3.70747258E-01  0.00000000E+00  3.60544438E+00  3.70747258E-01
 -2.22382970E-02  5.76982708E+00  4.81685520E-01 -2.22382970E-02  5.76982708E+00
  4.81685520E-01 -2.22382970E-02  5.76982708E+00  4.81685520E-01 -2.22382970E-02
  5.76982708E+00  4.81685520E-01 -2.22382970E-02  5.76982708E+00  4.81685520E-01
  3.60208822E+00 -1.54796915E-01  3.70754817E-01  3.60208822E+00 -1.54796915E-01
  3.70754817E-01  3.60208822E+00 -1.54796915E-01  3.70754817E-01  3.60208822E+00
 -1.54796915E-01  3.70754817E-01  3.60208822E+00 -1.54796915E-01  3.70754817E-01
  5.76352862E+00 -2.69869898E-01  4.81574026E-01  5.76352862E+00 -2.69869898E-01
  4.81574026E-01  5.76352862E+00 -2.69869898E-01  4.81574026E-01  5.76352862E+00
 -2.69869898E-01  4.81574026E-01  5.76352862E+00 -2.69869898E-01  4.81574026E-01
  0.00000000E+00 -3.60544438E+00  3.70747258E-01  0.00000000E+00 -3.60544438E+00
  3.70747258E-01  0.00000000E+00 -3.60544438E+00  3.70747258E-01  0.00000000E+00
 -3.60544438E+00  3.70747258E-01  0.00000000E+00 -3.60544438E+00  3.70747258E-01
  2.22382970E-02 -5.76982708E+00  4.81685520E-01  2.22382970E-02 -5.76982708E+00
  4.81685520E-01  2.22382970E-02 -5.76982708E+00  4.81685520E-01  2.22382970E-02
 -5.76982708E+00  4.81685520E-01  2.22382970E-02 -5.76982708E+00  4.81685520E-01
  0.00000000E+00  0.00000000E+00 -3.37821804E+00  0.00000000E+00  0.00000000E+00
 -3.37821804E+00  0.00000000E+00  0.00000000E+00 -3.37821804E+00  0.00000000E+00
  0.00000000E+00 -3.37821804E+00  0.00000000E+00  0.00000000E+00 -3.37821804E+00
  0.00000000E+00  0.00000000E+00 -5.54388953E+00  0.00000000E+00  0.00000000E+00
 -5.54388953E+00  0.00000000E+00  0.00000000E+00 -5.54388953E+00  0.00000000E+00
  0.00000000E+00 -5.54388953E+00  0.00000000E+00  0.00000000E+00 -5.54388953E+00
 -3.60208822E+00  1.54796915E-01  3.70754817E-01 -3.60208822E+00  1.54796915E-01
  3.70754817E-01 -3.60208822E+00  1.54796915E-01  3.70754817E-01 -3.60208822E+00
  1.54796915E-01  3.70754817E-01 -3.60208822E+00  1.54796915E-01  3.70754817E-01
 -5.76352862E+00  2.69869898E-01  4.81574026E-01 -5.76352862E+00  2.69869898E-01
  4.81574026E-01 -5.76352862E+00  2.69869898E-01  4.81574026E-01 -5.76352862E+00
  2.69869898E-01  4.81574026E-01 -5.76352862E+00  2.69869898E-01  4.81574026E-01
Num ILSW                                   I              100
ILSW                                       I   N=         100
           0           0           0           0           2           0
           0           0           0           0        2523          -1
           5           0           0           0           0           0
           0           0           1           0           0           0
           1           1           0           0           0           0
           0           0      100000           0          -1           0
           0           0           0           0           0           0
           0           0           0           1           0           0
           0 -2000000000           1           0           0           0
           0           0           4          52           0           0
           0           0          35           0           0           0
           0           0           0           0           0           1
           0           0           0           0           0           0
           0           0           0           0           0           0
           0           0           0           0           0           0
           0           0           0           0           0           0
           0           0           0           0
Num RLSW                                   I               52
RLSW                                       R   N=          52
  9.00000000E-01  9.00000000E-01  1.00000000E+00  1.00000000E+00  1.00000000E-01
  0.00000000E+00  0.00000000E+00  1.00000000E+00  0.00000000E+00  0.00000000E+00
  0.00000000E+00  0.00000000E+00  1.00000000E+00  0.00000000E+00  0.00000000E+00
  0.00000000E+00  0.00000000E+00  1.00000000E+00  0.00000000E+00  0.00000000E+00
  0.00000000E+00  0.00000000E+00  1.00000000E+00  0.00000000E+00  0.00000000E+00
  0.00000000E+00  0.00000000E+00  1.00000000E+00  0.00000000E+00  0.00000000E+00
  0.00000000E+00  0.00000000E+00  1.00000000E+00  0.00000000E+00  0.00000000E+00
  0.00000000E+00  0.00000000E+00  0.00000000E+00  1.00000000E+00  1.00000000E+00
  0.00000000E+00  1.00000000E+00  0.00000000E+00  0.00000000E+00  0.00000000E+00
  0.00000000E+00  0.00000000E+00  0.00000000E+00  0.00000000E+00  0.00000000E+00
  0.00000000E+00  0.00000000E+00
ECP-MxAtEC                                 I           250000
ECP-MaxLECP                                I               10
ECP-MaxAtL                                 I          2250000
ECP-MxTECP                                 I         11250000
ECP-LenNCZ                                 I                7
ECP-KFirst                                 I   N=         110
           1           0           0           0           0           0
           0           0           0           0           0           2
           0           0           0           0           0           0
           0           0           0           0           4           0
           0           0           0           0           0           0
           0           0           0           6           0           0
           0           0           0           0           0           0
           0           0           0           0           0           0
           0           0           0           0           0           0
           0           0           0           0           0           0
           0           0           0           0           0           0
           0           0           0           0           0           0
           0           0           0           0           0           0
           0           0           0           0           0           0
           0           0           0           0           0           0
           0           0           0           0           0           0
           0           0           0           0           0           0
           0           0           0           0           0           0
           0           0
ECP-KLast                                  I   N=         110
           1           0           0           0           0           0
           0           0           0           0           0           3
           0           0           0           0           0           0
           0           0           0           0           5           0
           0           0           0           0           0           0
           0           0           0           7           0           0
           0           0           0           0           0           0
           0           0           0           0           0           0
           0           0           0           0           0           0
           0           0           0           0           0           0
           0           0           0           0           0           0
           0           0           0           0           0           0
           0           0           0           0           0           0
           0           0           0           0           0           0
           0           0           0           0           0           0
           0           0           0           0           0           0
           0           0           0           0           0           0
           0           0           0           0           0           0
           0           0
ECP-LMax                                   I   N=          11
           3           0           0           0           0           0
           0           0           0           0           0
ECP-LPSkip                                 I   N=          11
           0           1           1           1           1           1
           1           1           1           1           1
ECP-RNFroz                                 R   N=          11
  1.00000000E+01  0.00000000E+00  0.00000000E+00  0.00000000E+00  0.00000000E+00
  0.00000000E+00  0.00000000E+00  0.00000000E+00  0.00000000E+00  0.00000000E+00
  0.00000000E+00
ECP-NLP                                    I   N=           7
           2           2           2           2           2           2
           2
ECP-CLP1                                   R   N=           7
  0.00000000E+00  2.01578887E+02  2.42057410E+01  1.25022774E+02  1.64790660E+01
 -2.08274210E+01 -8.34368000E-01
ECP-CLP2                                   R   N=           7
  0.00000000E+00  0.00000000E+00  0.00000000E+00  0.00000000E+00  0.00000000E+00
  0.00000000E+00  0.00000000E+00
ECP-ZLP                                    R   N=           7
  1.00000000E+00  1.63900000E+01  7.40200000E+00  1.64500000E+01  6.96200000E+00
  1.99300000E+01  6.59800000E+00
MxBond                                     I                5
NBond                                      I   N=          11
           5           2           1           2           1           2
           1           2           1           2           1
IBond                                      I   N=          55
           2           4           6           8          10           1
           3           0           0           0           2           0
           0           0           0           1           5           0
           0           0           4           0           0           0
           0           1           7           0           0           0
           6           0           0           0           0           1
           9           0           0           0           8           0
           0           0           0           1          11           0
           0           0          10           0           0           0
           0
RBond                                      R   N=          55
  1.00000000E+00  1.00000000E+00  1.00000000E+00  1.00000000E+00  1.00000000E+00
  1.00000000E+00  2.00000000E+00  0.00000000E+00  0.00000000E+00  0.00000000E+00
  2.00000000E+00  0.00000000E+00  0.00000000E+00  0.00000000E+00  0.00000000E+00
  1.00000000E+00  2.00000000E+00  0.00000000E+00  0.00000000E+00  0.00000000E+00
  2.00000000E+00  0.00000000E+00  0.00000000E+00  0.00000000E+00  0.00000000E+00
  1.00000000E+00  2.00000000E+00  0.00000000E+00  0.00000000E+00  0.00000000E+00
  2.00000000E+00  0.00000000E+00  0.00000000E+00  0.00000000E+00  0.00000000E+00
  1.00000000E+00  2.00000000E+00  0.00000000E+00  0.00000000E+00  0.00000000E+00
  2.00000000E+00  0.00000000E+00  0.00000000E+00  0.00000000E+00  0.00000000E+00
  1.00000000E+00  2.00000000E+00  0.00000000E+00  0.00000000E+00  0.00000000E+00
  2.00000000E+00  0.00000000E+00  0.00000000E+00  0.00000000E+00  0.00000000E+00
Virial Ratio                               R      2.072848046430237E+00
SCF Energy                                 R     -6.538356547832136E+02
Total Energy                               R     -6.538356547832136E+02
RMS Density                                R      8.824693214597034E-09
Job Status                                 I                1
Nuclear derivative order                   I                0
External E-field                           R   N=          35
  0.00000000E+00  0.00000000E+00  0.00000000E+00  0.00000000E+00  0.00000000E+00
  0.00000000E+00  0.00000000E+00  0.00000000E+00  0.00000000E+00  0.00000000E+00
  0.00000000E+00  0.00000000E+00  0.00000000E+00  0.00000000E+00  0.00000000E+00
  0.00000000E+00  0.00000000E+00  0.00000000E+00  0.00000000E+00  0.00000000E+00
  0.00000000E+00  0.00000000E+00  0.00000000E+00  0.00000000E+00  0.00000000E+00
  0.00000000E+00  0.00000000E+00  0.00000000E+00  0.00000000E+00  0.00000000E+00
  0.00000000E+00  0.00000000E+00  0.00000000E+00  0.00000000E+00  0.00000000E+00
IOpCl                                      I                0
IROHF                                      I                0
Alpha Orbital Energies                     R   N=         223
 -1.91401875E+01 -1.91401855E+01 -1.91401808E+01 -1.91401794E+01 -1.91305602E+01
 -1.02320944E+01 -1.02320934E+01 -1.02320913E+01 -1.02320877E+01 -1.02289418E+01
 -2.95999922E+00 -1.80926821E+00 -1.80698170E+00 -1.80693551E+00 -1.12542148E+00
 -1.12488024E+00 -1.12465328E+00 -1.12441443E+00 -1.11747128E+00 -5.91650416E-01
 -5.56538436E-01 -5.53659762E-01 -5.51786047E-01 -5.47112220E-01 -4.81397683E-01
 -4.63969454E-01 -4.58944347E-01 -4.56477192E-01 -4.55918307E-01 -4.54936973E-01
 -4.52040938E-01 -4.45059265E-01 -4.38473968E-01 -4.38003329E-01 -4.37462331E-01
 -4.29704287E-01 -4.09989515E-01 -4.02984416E-01 -3.96454843E-01 -2.39952842E-01
 -2.32261276E-01 -2.29300501E-01 -1.35813635E-01 -5.97687198E-02 -5.13481973E-02
 -4.21048931E-02 -2.86383840E-02 -2.71498323E-02 -2.62502655E-02 -2.24347398E-02
 -1.03552258E-02 -8.96482362E-03 -5.15019383E-03  5.25386877E-03  1.09660774E-02
  2.88911353E-02  2.94434367E-02  3.09239884E-02  7.29065098E-02  1.14347417E-01
  1.58837332E-01  1.59001409E-01  1.67355583E-01  1.83407888E-01  2.54111790E-01
  2.71656316E-01  2.80117322E-01  3.58223753E-01  3.66633375E-01  3.87136846E-01
  3.90553862E-01  4.35931041E-01  4.58490337E-01  4.64540311E-01  4.68082575E-01