Title Card Required                                                     
SP        RTPSSh                                                      6-311G(d)           
Number of atoms                            I                3
Info1-9                                    I   N=           9
          11          10           0           0           0         110
           1          18       -3502
Full Title                                 C   N=           2
Title Card Required     
Route                                      C   N=           2
# TPSSh/6-311G* nosymm  
Charge                                     I                0
Multiplicity                               I                1
Number of electrons                        I                8
Number of alpha electrons                  I                4
Number of beta electrons                   I                4
Number of basis functions                  I               24
Number of independent functions            I               24
Number of point charges in /Mol/           I                0
Number of translation vectors              I                0
Atomic numbers                             I   N=           3
           6           1           1
Nuclear charges                            R   N=           3
  6.00000000E+00  1.00000000E+00  1.00000000E+00
Current cartesian coordinates              R   N=           9
  0.00000000E+00  0.00000000E+00  3.88621044E+00  1.16885608E+00 -1.21901130E+00
  5.09152500E+00 -1.16885608E+00  1.21901130E+00  5.09152500E+00
Number of symbols in /Mol/                 I                0
Force Field                                I                0
Atom Types                                 C   N=           3
                                    
Int Atom Types                             I   N=           3
           0           0           0
MM charges                                 R   N=           3
  0.00000000E+00  0.00000000E+00  0.00000000E+00
Integer atomic weights                     I   N=           3
          12           1           1
Real atomic weights                        R   N=           3
  1.20000000E+01  1.00782504E+00  1.00782504E+00
Atom fragment info                         I   N=           3
           0           0           0
Atom residue num                           I   N=           3
           0           0           0
Nuclear spins                              I   N=           3
           0           1           1
Nuclear ZEff                               R   N=           3
 -3.60000000E+00 -1.00000000E+00 -1.00000000E+00
Nuclear ZNuc                               R   N=           3
  6.00000000E+00  1.00000000E+00  1.00000000E+00
Nuclear QMom                               R   N=           3
  0.00000000E+00  0.00000000E+00  0.00000000E+00
Nuclear GFac                               R   N=           3
  0.00000000E+00  2.79284600E+00  2.79284600E+00
MicOpt                                     I   N=           3
          -1          -1          -1
Number of residues                         I                0
Number of secondary structures             I                0
Number of contracted shells                I               11
Number of primitive shells                 I               22
Pure/Cartesian d shells                    I                0
Pure/Cartesian f shells                    I                0
Highest angular momentum                   I                2
Largest degree of contraction              I                6
Shell types                                I   N=          11
           0          -1          -1          -1          -2           0
           0           0           0           0           0
Number of primitives per shell             I   N=          11
           6           3           1           1           1           3
           1           1           3           1           1
Shell to atom map                          I   N=          11
           1           1           1           1           1           2
           2           2           3           3           3
Primitive exponents                        R   N=          22
  4.56324000E+03  6.82024000E+02  1.54973000E+02  4.44553000E+01  1.30290000E+01
  1.82773000E+00  2.09642000E+01  4.80331000E+00  1.45933000E+00  4.83456000E-01
  1.45585000E-01  6.26000000E-01  3.38650000E+01  5.09479000E+00  1.15879000E+00
  3.25840000E-01  1.02741000E-01  3.38650000E+01  5.09479000E+00  1.15879000E+00
  3.25840000E-01  1.02741000E-01
Contraction coefficients                   R   N=          22
  1.96665025E-03  1.52306019E-02  7.61269097E-02  2.60801033E-01  6.16462078E-01
  2.21006028E-01  1.14660081E-01  9.19999648E-01 -3.03068213E-03  1.00000000E+00
  1.00000000E+00  1.00000000E+00  2.54938145E-02  1.90373109E-01  8.52161486E-01
  1.00000000E+00  1.00000000E+00  2.54938145E-02  1.90373109E-01  8.52161486E-01
  1.00000000E+00  1.00000000E+00
P(S=P) Contraction coefficients            R   N=          22
  0.00000000E+00  0.00000000E+00  0.00000000E+00  0.00000000E+00  0.00000000E+00
  0.00000000E+00  4.02486927E-02  2.37593957E-01  8.15853851E-01  1.00000000E+00
  1.00000000E+00  0.00000000E+00  0.00000000E+00  0.00000000E+00  0.00000000E+00
  0.00000000E+00  0.00000000E+00  0.00000000E+00  0.00000000E+00  0.00000000E+00
  0.00000000E+00  0.00000000E+00
Coordinates of each shell                  R   N=          33
  0.00000000E+00  0.00000000E+00  3.88621044E+00  0.00000000E+00  0.00000000E+00
  3.88621044E+00  0.00000000E+00  0.00000000E+00  3.88621044E+00  0.00000000E+00
  0.00000000E+00  3.88621044E+00  0.00000000E+00  0.00000000E+00  3.88621044E+00
  1.16885608E+00 -1.21901130E+00  5.09152500E+00  1.16885608E+00 -1.21901130E+00
  5.09152500E+00  1.16885608E+00 -1.21901130E+00  5.09152500E+00 -1.16885608E+00
  1.21901130E+00  5.09152500E+00 -1.16885608E+00  1.21901130E+00  5.09152500E+00
 -1.16885608E+00  1.21901130E+00  5.09152500E+00
Num ILSW                                   I              100
ILSW                                       I   N=         100
           0           0           0           0           2           0
           0           0           0           0        2523          -1
           5           0           0           0           0           0
           0           0           1           0           0           0
           1           1           0           0           0           0
           0           0      100000           0          -1           0
           0           0           0           0           0           0
           0           0           0           1           0           0
           0 -2000000000           1           0           0           0
           0           0           4          52           0           0
           0           0          35           0           0           0
           0           0           0           0           0           1
           0           0           0           0           0           0
           0           0           0           0           0           0
           0           0           0           0           0           0
           0           0           0           0           0           0
           0           0           0           0
Num RLSW                                   I               52
RLSW                                       R   N=          52
  9.00000000E-01  9.00000000E-01  1.00000000E+00  1.00000000E+00  1.00000000E-01
  0.00000000E+00  0.00000000E+00  1.00000000E+00  0.00000000E+00  0.00000000E+00
  0.00000000E+00  0.00000000E+00  1.00000000E+00  0.00000000E+00  0.00000000E+00
  0.00000000E+00  0.00000000E+00  1.00000000E+00  0.00000000E+00  0.00000000E+00
  0.00000000E+00  0.00000000E+00  1.00000000E+00  0.00000000E+00  0.00000000E+00
  0.00000000E+00  0.00000000E+00  1.00000000E+00  0.00000000E+00  0.00000000E+00
  0.00000000E+00  0.00000000E+00  1.00000000E+00  0.00000000E+00  0.00000000E+00
  0.00000000E+00  0.00000000E+00  0.00000000E+00  1.00000000E+00  1.00000000E+00
  0.00000000E+00  1.00000000E+00  0.00000000E+00  0.00000000E+00  0.00000000E+00
  0.00000000E+00  0.00000000E+00  0.00000000E+00  0.00000000E+00  0.00000000E+00
  0.00000000E+00  0.00000000E+00
MxBond                                     I                2
NBond                                      I   N=           3
           2           1           1
IBond                                      I   N=           6
           2           3           1           0           1           0
RBond                                      R   N=           6
  1.00000000E+00  1.00000000E+00  1.00000000E+00  0.00000000E+00  1.00000000E+00
  0.00000000E+00
Virial Ratio                               R      2.002172717616952E+00
SCF Energy                                 R     -3.913773062645966E+01
Total Energy                               R     -3.913773062645966E+01
RMS Density                                R      7.945115336040454E-09
Job Status                                 I                1
Nuclear derivative order                   I                0
External E-field                           R   N=          35
  0.00000000E+00  0.00000000E+00  0.00000000E+00  0.00000000E+00  0.00000000E+00
  0.00000000E+00  0.00000000E+00  0.00000000E+00  0.00000000E+00  0.00000000E+00
  0.00000000E+00  0.00000000E+00  0.00000000E+00  0.00000000E+00  0.00000000E+00
  0.00000000E+00  0.00000000E+00  0.00000000E+00  0.00000000E+00  0.00000000E+00
  0.00000000E+00  0.00000000E+00  0.00000000E+00  0.00000000E+00  0.00000000E+00
  0.00000000E+00  0.00000000E+00  0.00000000E+00  0.00000000E+00  0.00000000E+00
  0.00000000E+00  0.00000000E+00  0.00000000E+00  0.00000000E+00  0.00000000E+00
IOpCl                                      I                0
IROHF                                      I                0
Alpha Orbital Energies                     R   N=          24
 -1.01729363E+01 -6.55025741E-01 -4.09267208E-01 -2.24718170E-01 -1.42162750E-01
  5.81023741E-02  1.14481435E-01  3.00177630E-01  3.45573067E-01  4.26767513E-01
  4.53575665E-01  5.81926465E-01  6.79313845E-01  1.27031964E+00  1.30051556E+00
  1.30250708E+00  1.49866252E+00  1.52814937E+00  2.25456367E+00  2.42760860E+00
  2.58379615E+00  2.78759510E+00  3.08970883E+00  2.33649398E+01
Alpha MO coefficients                      R   N=         576
  5.63765852E-01  4.64440015E-01  9.25177399E-16 -2.52713800E-16  2.32821211E-03
  1.03990525E-02 -1.10117151E-15  3.90382200E-16 -5.78655197E-04 -5.83230574E-03
  4.54206826E-16 -1.09459403E-16 -6.42852144E-04  1.15211135E-04 -2.18019488E-16
  2.43175911E-16 -9.26606418E-06 -2.20506534E-04 -2.08426086E-06 -1.74995149E-04
  1.59950833E-03 -2.08426086E-06 -1.74995149E-04  1.59950833E-03 -1.06707187E-01
 -1.71883983E-01  6.02363559E-16 -4.17683071E-16  6.56046113E-02  4.76171392E-01
  6.92213612E-16 -9.90490295E-16  1.20225195E-01  3.50358544E-01  1.46992488E-15
 -1.58131164E-15  5.62558246E-02  4.46141275E-03  3.65958104E-16 -4.25975425E-16
 -7.98086911E-04 -1.89902038E-02  1.16320580E-01  1.15554845E-01  1.86988278E-03
  1.16320580E-01  1.15554845E-01  1.86988278E-03 -3.33799148E-16 -6.64341938E-16
 -1.40560315E-01  1.46591550E-01  1.09886392E-16  2.38097482E-15 -2.22383682E-01
  2.31925938E-01  4.55326772E-16  2.31928292E-15 -1.09442795E-01  1.14138875E-01
  9.77261149E-16  2.72499497E-16 -3.50740030E-02  3.65789258E-02 -1.13560752E-17
  1.34481980E-17 -1.49112053E-01 -2.20801779E-01 -1.02160401E-01  1.49112053E-01
  2.20801779E-01  1.02160401E-01 -5.44891544E-02 -8.87117596E-02  9.93155609E-16
 -8.66707624E-16 -2.33333960E-01  2.52793796E-01 -3.43549948E-16  9.30479523E-16
 -3.33620299E-01  4.20071757E-01  5.92157709E-15 -5.68948448E-15 -3.73983969E-01
 -3.60193105E-02 -5.32951813E-17  2.03040367E-16  3.25172821E-04  7.73907563E-03
 -6.73068641E-02 -1.15503866E-01 -6.78659453E-02 -6.73068641E-02 -1.15503866E-01
 -6.78659453E-02  5.00779230E-17  8.26806127E-17  1.89870175E-01  1.82058090E-01
  1.91390808E-16 -5.07979904E-16  2.90657500E-01  2.78698725E-01  4.02434193E-16
  1.38457961E-15  3.88100359E-01  3.72132369E-01  1.40914183E-15  3.25700132E-17
  2.27685343E-02  2.18316714E-02  1.29921948E-16 -8.48426711E-17 -1.91580563E-09
 -6.48517734E-08 -9.19105414E-08  1.91580596E-09  6.48517705E-08  9.19105421E-08
 -5.00088488E-02 -8.08041892E-02  2.18915913E-15 -1.82660467E-15  1.00899933E-01
  1.87653138E-01  3.59725205E-15 -4.48939567E-15  1.55979261E-01  1.59865374E+00
  1.07114186E-14 -9.58030210E-15  5.48158619E-01  1.08535301E-02  2.46096516E-16
 -5.10982798E-16 -1.50170163E-04 -3.57366221E-03 -2.19540020E-02 -5.34643750E-02
 -1.22047213E+00 -2.19540020E-02 -5.34643750E-02 -1.22047213E+00 -3.97253363E-16
  2.19816290E-17 -1.23595113E-01  1.28898504E-01 -1.28987804E-15  2.72076856E-15
 -1.68355821E-01  1.75579934E-01 -4.56089209E-15 -2.54674949E-14 -7.21467067E-01
  7.52425091E-01 -2.73511124E-14 -5.95342704E-16 -8.21610799E-03  8.56859828E-03
  2.14639066E-17  1.95664805E-15  2.31004444E-02  2.83256084E-02  1.70380153E+00
 -2.31004444E-02 -2.83256084E-02 -1.70380153E+00 -6.16048706E-16 -7.33051982E-16
 -3.29496992E-02  3.43636138E-02  2.72354673E-15 -6.73573484E-15 -4.76183107E-02
  4.96619191E-02  1.21995612E-14  6.69077570E-14 -8.69147915E-01  9.06442253E-01
  3.12622684E-14  5.90894019E-16  1.86655639E-02 -1.94665070E-02 -3.96442341E-17
  4.01871384E-16  8.06220769E-02  1.06200027E+00 -3.41215068E-01 -8.06220769E-02
 -1.06200027E+00  3.41215068E-01 -2.85453068E-02 -4.79015695E-02 -6.02001665E-15
  4.16186141E-15  1.31137658E-02  4.58213799E-02 -2.93354351E-14  2.68034746E-14
  9.22716986E-03  1.36626269E+00  4.91007956E-14 -4.60869833E-14  1.16847948E+00
  2.13192967E-02 -7.22998119E-16  9.68727848E-16  2.15886727E-03  5.13695321E-02
 -8.66667994E-02 -1.27864286E+00  1.61473000E-01 -8.66667994E-02 -1.27864286E+00
  1.61473000E-01  2.10690992E-16  3.32895791E-16 -1.82916973E-01 -1.75390870E-01
  1.04932046E-15 -1.13816946E-15 -6.47684749E-01 -6.21036077E-01  4.36239006E-15
 -4.72054415E-15  8.29160441E-01  7.95045268E-01 -9.00533603E-15  7.67027684E-17
 -1.15168258E-02 -1.10428923E-02 -2.08513783E-16 -3.32862317E-16  8.25914827E-09
  4.84472388E-07 -5.10134089E-07 -8.25914777E-09 -4.84472383E-07  5.10134092E-07
 -2.32727003E-02 -4.38469845E-02  3.88308999E-15 -4.43622931E-15 -2.57837950E-01
  2.73438016E-01  1.57114757E-14 -2.34807901E-14 -9.13505863E-01 -1.85648389E-01
 -3.42775665E-14  4.43660122E-14  1.01871146E+00 -2.58921001E-02  1.12701872E-15
 -1.31854335E-15 -8.06959532E-04 -1.91989406E-02  3.21626475E-02  3.51492135E-01
 -3.67585810E-01  3.21626475E-02  3.51492135E-01 -3.67585810E-01  3.19245138E-16
  1.56571581E-15  1.93949124E-01 -2.02271435E-01  6.66954707E-15 -1.86802965E-14
  7.22654691E-01 -7.53663946E-01  1.90456300E-14  5.58705940E-14 -1.27857527E+00
  1.33343885E+00  8.47661367E-15  1.74573488E-15 -2.92642515E-04  3.05334943E-04
  8.74035726E-16  8.02651152E-15 -5.62512244E-02 -4.42059915E-01  1.58891265E+00
  5.62512244E-02  4.42059915E-01 -1.58891265E+00  1.25247200E-01  2.59830767E-01
 -3.84211298E-16  1.83351863E-15 -8.94123148E-02 -1.99472637E+00 -5.67826482E-15
  4.22250453E-15 -2.32677972E-01  3.46745271E+00  1.15228810E-14 -8.91342018E-15
  8.74164446E-01  3.35437861E-03 -1.90846462E-15  1.71666836E-15  6.01617105E-04
  1.43170275E-02  3.80714064E-02 -2.44092505E-02 -1.17701864E+00  3.80714064E-02
 -2.44092505E-02 -1.17701864E+00  3.61124455E-09 -5.43147809E-09  5.67362816E-16
  8.89391027E-16 -3.26441881E-07  2.55450062E-08 -6.23352691E-16 -1.23647281E-15
 -3.14338994E-08 -1.93381623E-07 -4.92970323E-16  1.99558664E-15 -1.40809587E-07
  3.49608553E-06 -9.59340533E-15 -8.20457700E-15  9.99118050E-01 -4.19895394E-02
  9.15473885E-08  1.43367430E-07 -4.29938275E-09  9.15473891E-08  1.43367429E-07
 -4.29938537E-09 -2.23975626E-03 -3.21846104E-03  1.62539359E-14  1.52192029E-14
 -5.30023763E-02  3.10805484E-02 -4.72209521E-15  8.88618892E-16 -3.85430738E-04
 -1.28438076E-01  5.02134719E-16  8.46081822E-15 -7.46780775E-02  9.96194062E-01
 -3.92763733E-13 -3.62640236E-13  2.83959881E-03  6.76499818E-02 -9.89712808E-03
  8.80799445E-02  8.73230184E-03 -9.89712808E-03  8.80799445E-02  8.73230184E-03
 -1.13261697E-15 -1.63008982E-15 -2.90935673E-02 -2.78963488E-02 -2.86141179E-14
  1.64511403E-14  2.83370628E-03  2.71717577E-03  4.50511033E-16 -7.01449197E-14
 -8.01885457E-03 -7.68883596E-03 -4.17165705E-14  5.33540965E-13  7.21184185E-01
  6.91511946E-01  1.43423551E-14  3.72103209E-14  4.22161201E-08  1.27671355E-07
 -4.54110001E-08 -4.22161289E-08 -1.27671259E-07  4.54110091E-08  5.06177180E-03
  6.13668848E-03  4.29208393E-15 -6.41257926E-15 -6.16708247E-03 -1.37715182E-01
 -1.81238320E-15  4.54708304E-15  1.09054265E-01  1.27990647E+00 -1.67772580E-14
  1.59724350E-14  6.50801010E-01  6.53494744E-02 -1.12629365E-14  1.37044271E-14
 -4.55580767E-02 -1.08402202E+00  2.01955649E-01 -1.15336733E+00  1.59013428E-02
  2.01955649E-01 -1.15336733E+00  1.59013428E-02 -7.45060987E-16 -1.29889039E-15
  2.90491276E-02 -3.02954158E-02  5.43681572E-16  1.13390659E-14 -1.59064325E-01
  1.65889693E-01 -2.54125429E-15 -3.70920386E-14 -4.59364943E-01  4.79076129E-01
 -1.33879149E-14 -1.21459620E-14 -7.38260021E-01  7.69938307E-01 -2.65697643E-16
  1.70052753E-14 -3.33394884E-01  1.33401527E+00 -3.59939826E-01  3.33394884E-01
 -1.33401527E+00  3.59939826E-01 -1.04105628E-02  5.29891242E-03 -5.69763796E-15
  2.48868288E-14  5.68785993E-01 -2.84934006E-01  5.80611428E-15 -2.74976164E-14
 -6.44142707E-01  1.07066016E-01  8.22677176E-16  8.76951660E-15  1.12909230E-01
  1.81070227E-02 -2.78953751E-15  5.13196109E-15 -1.21240671E-02 -2.88486838E-01
 -9.50501687E-01  1.22420607E+00 -4.80119604E-01 -9.50501687E-01  1.22420607E+00
 -4.80119604E-01 -5.36057783E-16 -6.35404526E-16  5.69364372E-01 -5.93796428E-01
  1.36363863E-14 -1.94910247E-16 -7.21025596E-01  7.51965412E-01 -1.75215562E-14
 -1.22679397E-14  5.03045757E-01 -5.24631624E-01 -2.42824410E-15 -1.30434794E-16
  3.13533646E-01 -3.26987116E-01 -9.62912117E-17 -2.73826179E-15 -7.85541741E-01
  9.28529133E-01 -8.44842975E-01  7.85541741E-01 -9.28529133E-01  8.44842975E-01
 -9.20929643E-17  1.55267286E-16 -9.45165722E-01 -9.06277225E-01  2.80349139E-15
 -4.60676067E-15  1.04704997E+00  1.00396932E+00 -7.00975292E-15  1.30921099E-15
 -4.21908361E-01 -4.04548751E-01  2.01611941E-15  1.19758801E-15 -1.53965258E-02
 -1.47626652E-02  5.92922462E-16 -2.56541281E-15  3.18813723E-07 -3.20638752E-07
  3.62865937E-07 -3.18813746E-07  3.20638784E-07 -3.62865950E-07 -1.60008646E-02
 -1.98148186E-02 -6.42597277E-15  1.08209274E-14 -1.19435086E+00  5.20985104E-02
  8.89989662E-15 -1.32084022E-14  1.40798016E+00 -3.08180844E-01 -1.16448352E-15
  2.36368120E-15 -6.87177832E-01 -2.15252002E-02  5.07882709E-15 -4.87116579E-15
 -8.07283132E-03 -1.92087011E-01 -5.59711344E-01  4.71815958E-01  2.64354089E-02
 -5.59711344E-01  4.71815958E-01  2.64354089E-02 -3.08674240E-16 -4.43498717E-16
  7.47566331E-01 -7.79644149E-01 -1.33508049E-14  2.66805600E-15 -9.81893970E-01
  1.02402662E+00  1.57279566E-14 -1.36075373E-14  4.74285923E-01 -4.94637331E-01
 -1.30956852E-14 -1.66747169E-15 -3.31031175E-01  3.45235608E-01  4.64450793E-16
 -1.45821182E-15  8.03900953E-01 -4.44853497E-01 -1.38550177E-01 -8.03900953E-01
  4.44853497E-01  1.38550177E-01 -2.02488529E+00  2.16614339E+00 -4.81763300E-16
  1.27412303E-16  1.38654855E-02 -4.35007728E-01 -8.15227839E-17 -1.12722549E-16
 -4.11514110E-02  4.36635831E-01  1.63946119E-17  8.58479815E-16  8.75430252E-02
 -1.67431007E-04  1.09405774E-16 -3.77334723E-17  9.30285767E-05  2.21348517E-03
  1.81133065E-02  4.10551643E-03 -1.29912535E-01  1.81133065E-02  4.10551643E-03
 -1.29912535E-01
Orthonormal basis                          R   N=         576
  5.71946881E-02  6.44545729E-02 -1.42452536E-17  5.00969084E-18  3.90437297E-02
  1.58934963E-01  5.64091286E-19  6.77477089E-18  8.13616835E-02  1.94588876E-01
 -9.78559110E-18  4.63264889E-18  9.74602750E-02  3.45189735E-04 -1.63338535E-18
  4.95358172E-19 -1.34209548E-03 -3.19341843E-02  1.01479219E-01  1.64727398E-01
  1.79206984E-01  1.01479219E-01  1.64727398E-01  1.79206984E-01 -1.06091144E-17
  7.75587569E-18 -9.96720985E-02  1.03948995E-01 -1.16854042E-16 -3.39321440E-17
 -1.77636849E-01  1.85259187E-01 -1.01273503E-16  1.38930472E-16 -1.84815082E-01
  1.92745435E-01  2.10337275E-16 -1.61282922E-18 -6.39080487E-02  6.66503216E-02
  5.47753320E-18  1.53857822E-16 -1.64055662E-01 -1.88843088E-01 -1.08420609E-01
  1.64055662E-01  1.88843088E-01  1.08420609E-01 -2.65750529E-01 -2.76180309E-01
 -2.33431778E-19  1.63241648E-16  2.27620302E-01 -2.02420562E-01  2.59854443E-17
  8.99807728E-17  3.14410834E-01 -1.35973103E-01  2.91255153E-17  2.26485216E-17
  2.66479312E-01  4.98437202E-04  1.64694053E-17 -1.73583761E-17 -1.93792065E-03
 -4.61114103E-02  8.66984234E-02  5.38784067E-02 -1.57083903E-02  8.66984234E-02
  5.38784067E-02 -1.57083903E-02  1.77118493E-16  2.13549623E-16  2.65225206E-01
  2.54312733E-01  2.96485727E-16  1.57224690E-16  3.36466159E-01  3.22622535E-01
  1.40278892E-16 -2.41042081E-16  2.71808482E-01  2.60625145E-01 -1.97563702E-16
  1.44452831E-18  2.09956240E-16 -1.96680486E-16 -9.75009303E-18 -9.99319849E-17
  1.36448231E-16  5.21671756E-17  2.41244242E-17 -1.90351005E-16 -6.24564372E-17
 -1.00187796E-17  4.00699573E-01  3.94150805E-01 -2.10028248E-16  5.14127545E-17
  2.73393903E-01  2.51711326E-03 -2.09915688E-16 -6.47012525E-17  2.92697563E-01
 -1.66486472E-01 -1.04591788E-16 -1.54852111E-16  1.79335494E-01 -5.31772813E-04
  4.96450543E-17 -4.89481792E-17  2.06752929E-03  4.91953536E-02 -3.21492934E-02
 -4.58215506E-02 -1.25826707E-01 -3.21492934E-02 -4.58215506E-02 -1.25826707E-01
  4.65789835E-17  3.48214216E-17  2.85746915E-01 -2.98008219E-01  4.27402857E-16
 -7.01265137E-17  2.09886136E-01 -2.18892279E-01  1.63966523E-16  6.42616293E-17
  8.10651297E-02 -8.45436071E-02 -1.70250241E-16  9.27511180E-16 -3.92515938E-01
  4.09358665E-01  1.28187044E-15  1.32123362E-16 -2.44266482E-01 -9.51853445E-02
 -4.87997047E-04  2.44266482E-01  9.51853445E-02  4.87997047E-04 -1.09197816E-01
 -9.33586805E-02 -1.02058718E-16  4.41448307E-17  1.67158711E-01  9.46386261E-02
  2.52881035E-17  5.71564144E-17  8.82565737E-02  1.53587568E-01  9.53936208E-17
  1.08735643E-16  4.67009018E-02 -8.02414284E-03  8.25623373E-17 -1.04528080E-16
  3.11978159E-02  7.42329308E-01 -2.79452911E-01 -5.60963769E-02  1.33993920E-01
 -2.79452911E-01 -5.60963769E-02  1.33993920E-01 -8.86335874E-17  7.16845768E-17
  7.29863023E-15 -7.57463912E-15 -8.55813298E-18  1.56445376E-17  1.74133737E-15
 -1.89649374E-15  5.99864263E-17 -8.16975288E-17 -5.58984033E-15  5.90138058E-15
 -1.42797012E-16  3.91798072E-01 -1.63504073E-03 -1.56776831E-03  9.19404949E-01
 -3.44046536E-02  2.09146981E-15 -1.78320350E-15 -4.05997817E-15 -1.84132279E-15
  1.74789072E-15  4.13307524E-15  1.36831731E-18 -2.64164679E-18  1.39753352E-15
 -1.49471647E-15 -5.12630415E-18  5.72208146E-18  2.34089417E-16 -3.50640369E-16
 -1.26374222E-18 -2.32763824E-18 -1.20256880E-15  1.39362730E-15  8.03177984E-18
  8.48387070E-01  2.79818971E-01  2.68306049E-01 -3.59670346E-01  2.42864024E-02
  4.63091679E-16 -2.98657871E-16 -9.12046958E-16 -4.33351360E-16  2.68262972E-16
  9.28627974E-16  9.45076620E-18 -1.30415703E-17  2.90084367E-14 -3.05964865E-14
 -1.40606978E-17  6.18735716E-17  8.54188270E-15 -8.73270015E-15 -1.16568340E-17
 -6.56519357E-17 -1.93923432E-14  2.02931009E-14  1.72086394E-17 -3.55832863E-01
  6.65352236E-01  6.37976863E-01  1.53521466E-01 -1.02983785E-02  4.86136572E-15
 -7.34214644E-15 -1.48345697E-14 -4.72809862E-15  7.04946710E-15  1.50304435E-14
  2.02484843E-17  1.26321107E-17 -4.57274467E-01  4.76895961E-01 -9.46738282E-16
  5.29978157E-17 -1.32910412E-01  1.38613554E-01 -1.72124245E-16 -6.61443521E-17
  3.09987001E-01 -3.23288439E-01  7.58400098E-16 -1.30031914E-14 -3.18733318E-01
  3.32410058E-01  2.46087964E-14 -9.16199326E-16 -8.03949481E-02  1.13830259E-01
  2.34033818E-01  8.03949481E-02 -1.13830259E-01 -2.34033818E-01 -1.31379385E-01
 -9.26553314E-02 -7.27013876E-16  5.37189995E-16  7.46493489E-01  2.72045714E-01
 -6.41261324E-16  2.01601768E-16  6.49437652E-02  2.28369678E-01  9.12714763E-17
 -4.37555150E-16 -6.21883319E-01  2.80347045E-03 -2.67892640E-16  3.55923173E-16
 -1.08998751E-02 -2.59354590E-01 -3.79545832E-02 -6.33950787E-02 -7.73387115E-02
 -3.79545832E-02 -6.33950787E-02 -7.73387115E-02 -1.46927852E-16  6.70651390E-17
  5.90184433E-01  5.65901778E-01 -2.23526279E-16  6.45905193E-17 -8.53287360E-03
 -8.18179550E-03  8.48685484E-17  2.58044543E-16 -5.65327334E-01 -5.42067404E-01
  1.12623286E-16 -4.38748485E-17 -3.27254476E-17 -6.42148372E-16 -4.88422814E-16
  6.72498656E-17 -9.81789384E-17 -9.74464244E-17 -3.81848058E-16 -2.55319030E-16
  2.83618299E-16  1.88591762E-17 -6.82914334E-02 -3.17342966E-02 -5.24981285E-20
  1.49166934E-16 -1.40384113E-01  3.25111063E-01  3.04463156E-16 -7.32260385E-16
  1.04952277E-01 -1.68601417E-02  7.49960581E-17  1.33756619E-17 -2.58393143E-01
 -6.97198831E-03  2.79689413E-16 -3.27211689E-16  2.71070459E-02  6.44992413E-01
  6.69983386E-01  4.50091184E-02 -4.19864935E-01  6.69983386E-01  4.50091184E-02
 -4.19864935E-01 -2.45632957E-16 -2.64709939E-17 -2.14654674E-01  2.23865433E-01
 -4.82513458E-16  5.54056386E-16  2.21185147E-01 -2.30676127E-01  2.78785553E-16
  1.82052005E-16 -2.92795530E-01  3.05359287E-01  1.39392777E-16  2.89047341E-16
 -5.34119020E-01  5.57037888E-01 -1.41738328E-16  2.09089165E-16  7.45949129E-01
 -3.70331398E-02 -3.86902412E-01 -7.45949129E-01  3.70331398E-02  3.86902412E-01
 -3.87810483E-01 -7.53165673E-02  2.61782567E-16 -3.63116477E-16 -3.25046082E-01
  1.12806544E+00  7.00975785E-17 -9.02377272E-16  2.56105601E-01 -1.21240832E-02
  3.47486402E-16  5.07496708E-16  4.94349991E-01  3.42995223E-03  6.61887718E-16
 -7.06911630E-16 -1.33356323E-02 -3.17311658E-01 -3.39393559E-01 -3.05463977E-02
 -3.83428178E-01 -3.39393559E-01 -3.05463977E-02 -3.83428178E-01  4.00402164E-16
 -4.52443213E-16  6.95269694E-01 -7.25103482E-01 -2.65556649E-15 -8.21182173E-17
 -1.02501651E+00  1.06899962E+00  3.58298553E-15  1.49175547E-15 -1.20277469E-01
  1.25438535E-01 -1.10075245E-15 -2.94237181E-18 -3.85003203E-01  4.01523561E-01
 -1.26039297E-16 -1.57663274E-16  4.46270128E-01  2.22073248E-01  4.74646524E-01
 -4.46270128E-01 -2.22073248E-01 -4.74646524E-01 -4.76441444E-16  9.49878270E-18
 -7.38262464E-01 -7.07887260E-01  1.53162140E-15  1.07272757E-15  1.21943262E+00
  1.16926007E+00 -2.76582211E-15  4.37014889E-17 -7.89129149E-01 -7.56661077E-01
  1.86702260E-15  2.16550312E-16  5.87073781E-16 -3.58158509E-16  1.19611349E-16
 -1.36744525E-16  6.21338199E-16 -1.82787063E-15 -3.16560086E-15 -1.19562077E-15
  2.93773079E-15  1.40812343E-15  1.56532966E-01 -8.61030098E-02 -2.50014925E-15
  5.79915268E-16 -1.01344017E+00 -3.56465250E-01  4.26165507E-15 -4.14028499E-16
  1.69520759E+00  4.42620857E-01 -1.32737800E-15 -1.47745824E-15 -9.71008162E-01
  1.51354821E-03  5.92940965E-16 -4.54500630E-16 -5.88466575E-03 -1.40021336E-01
 -2.36498927E-01 -1.87730000E-02  3.65645862E-02 -2.36498927E-01 -1.87730000E-02
  3.65645862E-02 -1.95419875E+00  2.06566357E+00  8.73338270E-17 -6.79920825E-16
 -6.94864955E-02 -2.06351798E-01 -6.90994599E-16  9.60633991E-16  1.76405987E-01
 -2.41812673E-01  4.58019673E-15 -4.79758913E-15 -1.94354298E-01 -1.57921577E-04
  9.66533557E-16 -1.07841206E-15  6.13998081E-04  1.46096371E-02  1.52649322E-01
 -2.49147212E-01  3.27413983E-01  1.52649322E-01 -2.49147212E-01  3.27413983E-01
 -1.27464345E-14  1.47436379E-14 -1.48296480E-01  1.54659832E-01  1.32485797E-15
 -7.39641308E-15  1.95313103E-01 -2.03693922E-01 -3.97413849E-15 -1.17510303E-16
 -1.16694953E+00  1.21702294E+00 -3.22762707E-15  2.24065119E-16 -2.46189201E-01
  2.56753097E-01 -4.22646420E-17  2.03372642E-15 -6.96133438E-01  1.79376547E+00
 -3.48307411E-02  6.96133438E-01 -1.79376547E+00  3.48307411E-02 -3.53694964E-01
  4.86730721E-01  2.82491370E-15 -2.11265679E-15  9.05696093E-02 -7.04198908E-01
 -5.20082723E-15  3.38306799E-15 -3.76635588E-01  1.98899842E-02  1.43992793E-14
 -1.26283284E-14 -4.15130635E-01 -2.65041252E-03  2.33655478E-15 -1.77511207E-15
  1.03047869E-02  2.45194899E-01 -7.27841805E-01  2.00975944E+00 -9.54436078E-01
 -7.27841805E-01  2.00975944E+00 -9.54436078E-01  1.44197777E-15 -1.77752488E-15
 -3.24740221E-01  3.38674715E-01 -4.36561480E-16  3.63713288E-15  9.38397720E-01
 -9.78664051E-01  1.57559620E-15 -1.40639986E-14 -1.41876588E+00  1.47964465E+00
 -6.87463626E-15 -3.13577767E-16  2.63661879E-02 -2.74975522E-02  8.52297841E-17
  1.01700356E-15  2.71430019E-01 -9.41548285E-01  2.44422522E+00 -2.71430019E-01
  9.41548285E-01 -2.44422522E+00 -2.55130467E-01  5.02962181E-01 -1.79056520E-15
  2.42132277E-15  1.33730346E-01 -1.57538955E+00  5.02928551E-15 -5.67203323E-15
 -3.51081223E-01  4.27972269E+00 -3.26840013E-15  6.25849201E-15  1.60213253E+00
  3.11061047E-03  1.76137085E-15 -1.62420841E-15 -1.20940336E-02 -2.87768720E-01
  1.22655478E-01 -8.39120077E-01 -1.36902560E+00  1.22655478E-01 -8.39120077E-01
 -1.36902560E+00
Total SCF Density                          R   N=         300
  6.64374854E-01  5.70021011E-01  5.06236814E-01  9.00219215E-16  6.62856575E-16
  3.95144045E-02 -1.99215189E-16 -1.32154255E-16 -4.12099090E-02  4.29781652E-02
  1.40525063E-02  2.10087982E-02 -4.11021521E-16  3.80700863E-16  1.17508245E-01
 -1.17445599E-01 -1.98884564E-01  4.25684536E-16 -1.43168468E-16 -5.54442543E-02