 Entering Gaussian System, Link 0=g16
 Initial command:
 /sob/g16/l1.exe "/sob2/gauscr/Gau-40070.inp" -scrdir="/sob2/gauscr/"
 Default is to use a total of  36 processors:
                               36 via shared-memory
                                1 via Linda
 Entering Link 1 = /sob/g16/l1.exe PID=     40071.
  
 Copyright (c) 1988,1990,1992,1993,1995,1998,2003,2009,2016,
            Gaussian, Inc.  All Rights Reserved.
  
 This is part of the Gaussian(R) 16 program.  It is based on
 the Gaussian(R) 09 system (copyright 2009, Gaussian, Inc.),
 the Gaussian(R) 03 system (copyright 2003, Gaussian, Inc.),
 the Gaussian(R) 98 system (copyright 1998, Gaussian, Inc.),
 the Gaussian(R) 94 system (copyright 1995, Gaussian, Inc.),
 the Gaussian 92(TM) system (copyright 1992, Gaussian, Inc.),
 the Gaussian 90(TM) system (copyright 1990, Gaussian, Inc.),
 the Gaussian 88(TM) system (copyright 1988, Gaussian, Inc.),
 the Gaussian 86(TM) system (copyright 1986, Carnegie Mellon
 University), and the Gaussian 82(TM) system (copyright 1983,
 Carnegie Mellon University). Gaussian is a federally registered
 trademark of Gaussian, Inc.
  
 This software contains proprietary and confidential information,
 including trade secrets, belonging to Gaussian, Inc.
  
 This software is provided under written license and may be
 used, copied, transmitted, or stored only in accord with that
 written license.
  
 The following legend is applicable only to US Government
 contracts under FAR:
  
                    RESTRICTED RIGHTS LEGEND
  
 Use, reproduction and disclosure by the US Government is
 subject to restrictions as set forth in subparagraphs (a)
 and (c) of the Commercial Computer Software - Restricted
 Rights clause in FAR 52.227-19.
  
 Gaussian, Inc.
 340 Quinnipiac St., Bldg. 40, Wallingford CT 06492
  
  
 ---------------------------------------------------------------
 Warning -- This program may not be used in any manner that
 competes with the business of Gaussian, Inc. or will provide
 assistance to any competitor of Gaussian, Inc.  The licensee
 of this program is prohibited from giving any competitor of
 Gaussian, Inc. access to this program.  By using this program,
 the user acknowledges that Gaussian, Inc. is engaged in the
 business of creating and licensing software in the field of
 computational chemistry and represents and warrants to the
 licensee that it is not a competitor of Gaussian, Inc. and that
 it will not use this program in any manner prohibited above.
 ---------------------------------------------------------------
  

 Cite this work as:
 Gaussian 16, Revision A.03,
 M. J. Frisch, G. W. Trucks, H. B. Schlegel, G. E. Scuseria, 
 M. A. Robb, J. R. Cheeseman, G. Scalmani, V. Barone, 
 G. A. Petersson, H. Nakatsuji, X. Li, M. Caricato, A. V. Marenich, 
 J. Bloino, B. G. Janesko, R. Gomperts, B. Mennucci, H. P. Hratchian, 
 J. V. Ortiz, A. F. Izmaylov, J. L. Sonnenberg, D. Williams-Young, 
 F. Ding, F. Lipparini, F. Egidi, J. Goings, B. Peng, A. Petrone, 
 T. Henderson, D. Ranasinghe, V. G. Zakrzewski, J. Gao, N. Rega, 
 G. Zheng, W. Liang, M. Hada, M. Ehara, K. Toyota, R. Fukuda, 
 J. Hasegawa, M. Ishida, T. Nakajima, Y. Honda, O. Kitao, H. Nakai, 
 T. Vreven, K. Throssell, J. A. Montgomery, Jr., J. E. Peralta, 
 F. Ogliaro, M. J. Bearpark, J. J. Heyd, E. N. Brothers, K. N. Kudin, 
 V. N. Staroverov, T. A. Keith, R. Kobayashi, J. Normand, 
 K. Raghavachari, A. P. Rendell, J. C. Burant, S. S. Iyengar, 
 J. Tomasi, M. Cossi, J. M. Millam, M. Klene, C. Adamo, R. Cammi, 
 J. W. Ochterski, R. L. Martin, K. Morokuma, O. Farkas, 
 J. B. Foresman, and D. J. Fox, Gaussian, Inc., Wallingford CT, 2016.
 
 ******************************************
 Gaussian 16:  ES64L-G16RevA.03 25-Dec-2016
                14-Aug-2017 
 ******************************************
 -------------------------------
 # PBE1PBE/6-31G* TD(nstates=20)
 -------------------------------
 1/38=1,172=1/1;
 2/12=2,17=6,18=5,40=1/2;
 3/5=1,6=6,7=1,11=9,25=1,30=1,74=-13/1,2,3,8;
 4//1;
 5/5=2,38=5/2;
 8/6=1,10=2,108=20/1;
 9/41=20,42=1,70=2/14;
 6/7=2,8=2,9=2,10=2/1;
 99/5=1,9=1/99;
 ----------
 [No Title]
 ----------
 Symbolic Z-matrix:
 Charge =  0 Multiplicity = 1
 C                    -0.35354   5.30623   0. 
 C                     1.04015   5.15499   0. 
 C                     1.65068   3.904     0. 
 C                     0.82182   2.78544   0. 
 C                    -0.58214   2.92586   0. 
 C                    -1.17407   4.18539   0. 
 N                     1.15943   1.44642   0. 
 C                     0.0222    0.67822   0. 
 C                    -1.15943   1.57991   0. 
 O                    -2.32885   1.20546   0. 
 C                    -0.0222   -0.67822   0. 
 C                     1.15943  -1.57991   0. 
 C                     0.58214  -2.92586   0. 
 C                    -0.82182  -2.78544   0. 
 N                    -1.15943  -1.44642   0. 
 O                     2.32885  -1.20546   0. 
 C                     1.17407  -4.18539   0. 
 C                     0.35354  -5.30623   0. 
 C                    -1.04015  -5.15499   0. 
 C                    -1.65068  -3.904     0. 
 H                    -0.78645   6.30175   0. 
 H                     1.66864   6.04174   0. 
 H                     2.73244   3.80769   0. 
 H                    -2.25699   4.27199   0. 
 H                     2.08266   1.03382   0. 
 H                    -2.08266  -1.03382   0. 
 H                     2.25699  -4.27199   0. 
 H                     0.78645  -6.30175   0. 
 H                    -1.66864  -6.04174   0. 
 H                    -2.73244  -3.80769   0. 
 
                          Input orientation:                          
 ---------------------------------------------------------------------
 Center     Atomic      Atomic             Coordinates (Angstroms)
 Number     Number       Type             X           Y           Z
 ---------------------------------------------------------------------
      1          6           0       -0.353538    5.306233    0.000000
      2          6           0        1.040155    5.154988    0.000000
      3          6           0        1.650679    3.904003    0.000000
      4          6           0        0.821817    2.785440    0.000000
      5          6           0       -0.582136    2.925858    0.000000
      6          6           0       -1.174066    4.185385    0.000000
      7          7           0        1.159430    1.446419    0.000000
      8          6           0        0.022199    0.678223    0.000000
      9          6           0       -1.159430    1.579913    0.000000
     10          8           0       -2.328846    1.205464    0.000000
     11          6           0       -0.022199   -0.678223    0.000000
     12          6           0        1.159430   -1.579913    0.000000
     13          6           0        0.582136   -2.925858    0.000000
     14          6           0       -0.821817   -2.785440    0.000000
     15          7           0       -1.159430   -1.446419    0.000000
     16          8           0        2.328846   -1.205464    0.000000
     17          6           0        1.174066   -4.185385    0.000000
     18          6           0        0.353538   -5.306233    0.000000
     19          6           0       -1.040155   -5.154988    0.000000
     20          6           0       -1.650679   -3.904003    0.000000
     21          1           0       -0.786450    6.301753    0.000000
     22          1           0        1.668639    6.041735    0.000000
     23          1           0        2.732436    3.807686    0.000000
     24          1           0       -2.256986    4.271990    0.000000
     25          1           0        2.082660    1.033816    0.000000
     26          1           0       -2.082660   -1.033816    0.000000
     27          1           0        2.256986   -4.271990    0.000000
     28          1           0        0.786450   -6.301753    0.000000
     29          1           0       -1.668639   -6.041735    0.000000
     30          1           0       -2.732436   -3.807686    0.000000
 ---------------------------------------------------------------------
                    Distance matrix (angstroms):
                    1          2          3          4          5
     1  C    0.000000
     2  C    1.401876   0.000000
     3  C    2.446045   1.392014   0.000000
     4  C    2.781341   2.379586   1.392191   0.000000
     5  C    2.391326   2.756964   2.437669   1.410958   0.000000
     6  C    1.389088   2.417210   2.838725   2.437908   1.391686
     7  N    4.145749   3.710487   2.506201   1.380927   2.285124
     8  C    4.643238   4.591041   3.613531   2.253831   2.327463
     9  C    3.812469   4.197539   3.646657   2.319188   1.464526
    10  O    4.551719   5.191234   4.808194   3.524628   2.451683
    11  C    5.993622   5.929161   4.878044   3.565014   3.647318
    12  C    7.050396   6.735957   5.505875   4.378389   4.830634
    13  C    8.285096   8.093816   6.912943   5.716325   5.966415
    14  C    8.105212   8.155816   7.131752   5.808290   5.716325
    15  N    6.800571   6.958214   6.043486   4.672683   4.410224
    16  O    7.042541   6.489690   5.154276   4.265964   5.053874
    17  C    9.613760   9.341333   8.103416   6.979719   7.324891
    18  C   10.635995  10.483730   9.301130   8.105212   8.285096
    19  C   10.483730  10.517761   9.450180   8.155816   8.093816
    20  C    9.301130   9.450180   8.477259   7.131752   6.912943
    21  H    1.085575   2.156747   3.418889   3.866650   3.382072
    22  H    2.151781   1.086882   2.137807   3.364605   3.843784
    23  H    3.430580   2.163108   1.086036   2.166899   3.429870
    24  H    2.166281   3.413330   3.924954   3.418897   2.148766
    25  H    4.918192   4.250985   2.902513   2.158220   3.268174
    26  H    6.571612   6.932046   6.190305   4.798198   4.234453
    27  H    9.927597   9.505188   8.198443   7.201877   7.737547
    28  H   11.663829  11.459550  10.242282   9.087262   9.328549
    29  H   11.423917  11.519730  10.485017   9.171771   9.033173
    30  H    9.419271   9.724298   8.870279   7.490128   7.068550
                    6          7          8          9         10
     6  C    0.000000
     7  N    3.598213   0.000000
     8  C    3.705568   1.372377   0.000000
     9  C    2.605513   2.322699   1.486369   0.000000
    10  O    3.195848   3.496588   2.409439   1.227903   0.000000
    11  C    4.998148   2.431121   1.357172   2.528334   2.978069
    12  C    6.219635   3.026332   2.528334   3.919389   4.463899
    13  C    7.324891   4.410224   3.647318   4.830634   5.053874
    14  C    6.979719   4.672683   3.565014   4.378389   4.265964
    15  N    5.631823   3.707509   2.431121   3.026332   2.898278
    16  O    6.428969   2.898278   2.978069   4.463899   5.244680
    17  C    8.693878   5.631823   4.998148   6.219635   6.428969
    18  C    9.613760   6.800571   5.993622   7.050396   7.042541
    19  C    9.341333   6.958214   5.929161   6.735957   6.489690
    20  C    8.103416   6.043486   4.878044   5.505875   5.154276
    21  H    2.151571   5.230747   5.681373   4.736548   5.324580
    22  H    3.395145   4.623443   5.610528   5.282597   6.274504
    23  H    3.924718   2.837240   4.139918   4.484372   5.691057
    24  H    1.086378   4.433481   4.255566   2.907216   3.067368
    25  H    4.531959   1.011234   2.090920   3.287761   4.414844
    26  H    5.297698   4.081999   2.713210   2.771991   2.252772
    27  H    9.126846   5.822785   5.431287   6.776184   7.143694
    28  H   10.668818   7.757144   7.021691   8.118319   8.127938
    29  H   10.239072   8.004400   6.929413   7.638639   7.277209
    30  H    8.143568   6.538520   5.264161   5.612537   5.029370
                   11         12         13         14         15
    11  C    0.000000
    12  C    1.486369   0.000000
    13  C    2.327463   1.464526   0.000000
    14  C    2.253831   2.319188   1.410958   0.000000
    15  N    1.372377   2.322699   2.285124   1.380927   0.000000
    16  O    2.409439   1.227903   2.451683   3.524628   3.496588
    17  C    3.705568   2.605513   1.391686   2.437908   3.598213
    18  C    4.643238   3.812469   2.391326   2.781341   4.145749
    19  C    4.591041   4.197539   2.756964   2.379586   3.710487
    20  C    3.613531   3.646657   2.437669   1.392191   2.506201
    21  H    7.021691   8.118319   9.328549   9.087262   7.757144
    22  H    6.929413   7.638639   9.033173   9.171771   8.004400
    23  H    5.264161   5.612537   7.068550   7.490128   6.538520
    24  H    5.431287   6.776184   7.737547   7.201877   5.822785
    25  H    2.713210   2.771991   4.234453   4.798198   4.081999
    26  H    2.090920   3.287761   3.268174   2.158220   1.011234
    27  H    4.255566   2.907216   2.148766   3.418897   4.433481
    28  H    5.681373   4.736548   3.382072   3.866650   5.230747
    29  H    5.610528   5.282597   3.843784   3.364605   4.623443
    30  H    4.139918   4.484372   3.429870   2.166899   2.837240
                   16         17         18         19         20
    16  O    0.000000
    17  C    3.195848   0.000000
    18  C    4.551719   1.389088   0.000000
    19  C    5.191234   2.417210   1.401876   0.000000
    20  C    4.808194   2.838725   2.446045   1.392014   0.000000
    21  H    8.127938  10.668818  11.663829  11.459550  10.242282
    22  H    7.277209  10.239072  11.423917  11.519730  10.485017
    23  H    5.029370   8.143568   9.419271   9.724298   8.870279
    24  H    7.143694   9.126846   9.927597   9.505188   8.198443
    25  H    2.252772   5.297698   6.571612   6.932046   6.190305
    26  H    4.414844   4.531959   4.918192   4.250985   2.902513
    27  H    3.067368   1.086378   2.166281   3.413330   3.924954
    28  H    5.324580   2.151571   1.085575   2.156747   3.418889
    29  H    6.274504   3.395145   2.151781   1.086882   2.137807
    30  H    5.691057   3.924718   3.430580   2.163108   1.086036
                   21         22         23         24         25
    21  H    0.000000
    22  H    2.468820   0.000000
    23  H    4.313111   2.474397   0.000000
    24  H    2.506474   4.306104   5.010979   0.000000
    25  H    5.998579   5.025004   2.848958   5.414637   0.000000
    26  H    7.449210   8.008475   6.828271   5.308669   4.650268
    27  H   11.003024  10.330493   8.093653   9.663102   5.308669
    28  H   12.701275  12.374973  10.295029  11.003024   7.449210
    29  H   12.374973  12.535855  10.787982  10.330493   8.008475
    30  H   10.295029  10.787982   9.373298   8.093653   6.828271
                   26         27         28         29         30
    26  H    0.000000
    27  H    5.414637   0.000000
    28  H    5.998579   2.506474   0.000000
    29  H    5.025004   4.306104   2.468820   0.000000
    30  H    2.848958   5.010979   4.313111   2.474397   0.000000
 Stoichiometry    C16H10N2O2
 Framework group  C2H[SGH(C16H10N2O2)]
 Deg. of freedom    29
 Full point group                 C2H     NOp   4
 Largest Abelian subgroup         C2H     NOp   4
 Largest concise Abelian subgroup C2      NOp   2
                         Standard orientation:                         
 ---------------------------------------------------------------------
 Center     Atomic      Atomic             Coordinates (Angstroms)
 Number     Number       Type             X           Y           Z
 ---------------------------------------------------------------------
      1          6           0       -0.353538    5.306233    0.000000
      2          6           0        1.040155    5.154988    0.000000
      3          6           0        1.650679    3.904003    0.000000
      4          6           0        0.821817    2.785440    0.000000
      5          6           0       -0.582136    2.925858    0.000000
      6          6           0       -1.174066    4.185385    0.000000
      7          7           0        1.159430    1.446419    0.000000
      8          6           0        0.022199    0.678223    0.000000
      9          6           0       -1.159430    1.579913    0.000000
     10          8           0       -2.328846    1.205464    0.000000
     11          6           0       -0.022199   -0.678223    0.000000
     12          6           0        1.159430   -1.579913    0.000000
     13          6           0        0.582136   -2.925858    0.000000
     14          6           0       -0.821817   -2.785440    0.000000
     15          7           0       -1.159430   -1.446419    0.000000
     16          8           0        2.328846   -1.205464    0.000000
     17          6           0        1.174066   -4.185385    0.000000
     18          6           0        0.353538   -5.306233    0.000000
     19          6           0       -1.040155   -5.154988    0.000000
     20          6           0       -1.650679   -3.904003    0.000000
     21          1           0       -0.786450    6.301753    0.000000
     22          1           0        1.668639    6.041735    0.000000
     23          1           0        2.732436    3.807686    0.000000
     24          1           0       -2.256986    4.271990    0.000000
     25          1           0        2.082660    1.033816    0.000000
     26          1           0       -2.082660   -1.033816    0.000000
     27          1           0        2.256986   -4.271990    0.000000
     28          1           0        0.786450   -6.301753    0.000000
     29          1           0       -1.668639   -6.041735    0.000000
     30          1           0       -2.732436   -3.807686    0.000000
 ---------------------------------------------------------------------
 Rotational constants (GHZ):           1.1632799           0.1748182           0.1519788
 Standard basis: 6-31G(d) (6D, 7F)
 There are   120 symmetry adapted cartesian basis functions of AG  symmetry.
 There are    40 symmetry adapted cartesian basis functions of BG  symmetry.
 There are    40 symmetry adapted cartesian basis functions of AU  symmetry.
 There are   120 symmetry adapted cartesian basis functions of BU  symmetry.
 There are   120 symmetry adapted basis functions of AG  symmetry.
 There are    40 symmetry adapted basis functions of BG  symmetry.
 There are    40 symmetry adapted basis functions of AU  symmetry.
 There are   120 symmetry adapted basis functions of BU  symmetry.
   320 basis functions,   600 primitive gaussians,   320 cartesian basis functions
    68 alpha electrons       68 beta electrons
       nuclear repulsion energy      1382.7770848713 Hartrees.
 NAtoms=   30 NActive=   30 NUniq=   15 SFac= 4.00D+00 NAtFMM=   60 NAOKFM=F Big=F
 Integral buffers will be    131072 words long.
 Regular integral format.
 Two-electron integral symmetry is turned on.
 One-electron integrals computed using PRISM.
 NBasis=   320 RedAO= T EigKep=  3.46D-04  NBF=   120    40    40   120
 NBsUse=   320 1.00D-06 EigRej= -1.00D+00 NBFU=   120    40    40   120
 ExpMin= 1.61D-01 ExpMax= 5.48D+03 ExpMxC= 8.25D+02 IAcc=3 IRadAn=         5 AccDes= 0.00D+00
 Harris functional with IExCor= 1009 and IRadAn=       5 diagonalized for initial guess.
 HarFok:  IExCor= 1009 AccDes= 0.00D+00 IRadAn=         5 IDoV= 1 UseB2=F ITyADJ=14
 ICtDFT=  3500011 ScaDFX=  1.000000  1.000000  1.000000  1.000000
 FoFCou: FMM=F IPFlag=           0 FMFlag=      100000 FMFlg1=           0
         NFxFlg=           0 DoJE=T BraDBF=F KetDBF=T FulRan=T
         wScrn=  0.000000 ICntrl=       500 IOpCl=  0 I1Cent=   200000004 NGrid=           0
         NMat0=    1 NMatS0=      1 NMatT0=    0 NMatD0=    1 NMtDS0=    0 NMtDT0=    0
 Petite list used in FoFCou.
 Initial guess orbital symmetries:
       Occupied  (BU) (AG) (BU) (AG) (AG) (BU) (BU) (AG) (AG) (BU)
                 (BU) (AG) (AG) (BU) (AG) (BU) (AG) (BU) (AG) (BU)
                 (AG) (BU) (AG) (BU) (AG) (BU) (AG) (BU) (AG) (BU)
                 (AG) (BU) (AG) (BU) (AG) (BU) (AG) (BU) (AG) (BU)
                 (BU) (AG) (BU) (AG) (AG) (BU) (AG) (BU) (BU) (AG)
                 (AU) (AG) (BG) (BU) (AG) (AG) (BU) (AU) (BG) (AU)
                 (BG) (AU) (BU) (BG) (AU) (AG) (BG) (AU)
       Virtual   (BG) (AU) (BG) (AU) (BG) (AU) (BU) (AG) (BU) (BG)
                 (AU) (BG) (BU) (AG) (AG) (BU) (AG) (BU) (AG) (BU)
                 (BU) (AG) (AG) (AG) (BU) (BU) (AG) (AG) (BU) (BU)
                 (AG) (BU) (BU) (AG) (BU) (AG) (BU) (AG) (AG) (BU)
                 (AG) (BU) (AU) (BG) (AG) (BU) (BU) (AG) (BU) (AU)
                 (AG) (BG) (AG) (AG) (BU) (AU) (AG) (BU) (BG) (AG)
                 (BU) (BU) (AU) (BG) (AG) (BG) (AU) (BU) (AU) (BG)
                 (AG) (AU) (BU) (BG) (AG) (BG) (BU) (AU) (AG) (BU)
                 (AG) (BU) (AG) (BG) (AG) (AU) (BU) (BU) (AG) (AG)
                 (BU) (AG) (BU) (BU) (AG) (AG) (BU) (AG) (AU) (BU)
                 (BG) (BU) (BU) (AG) (BU) (AG) (AG) (BU) (BU) (AG)
                 (AU) (BU) (BG) (AG) (AG) (BU) (AU) (BG) (BG) (AU)
                 (AU) (AG) (BU) (AG) (BG) (AU) (BG) (BU) (AG) (AU)
                 (BG) (AU) (BU) (BG) (AU) (BU) (AG) (AG) (AG) (BU)
                 (AG) (BU) (BU) (AG) (BG) (BU) (AU) (AG) (BU) (BG)
                 (BU) (AG) (AU) (BU) (AG) (BG) (AG) (BU) (AG) (AG)
                 (BU) (BU) (AG) (BU) (AU) (AG) (BU) (AG) (BU) (BG)
                 (AG) (BU) (AG) (BG) (AU) (BU) (AG) (BU) (AG) (AU)
                 (BU) (BG) (BG) (AU) (AU) (BU) (BG) (AU) (AG) (BG)
                 (AG) (AU) (AG) (BU) (BG) (BU) (AG) (BU) (AG) (BG)
                 (BU) (AU) (AG) (AU) (BU) (BU) (AG) (BG) (AG) (BU)
                 (BU) (AU) (AG) (AG) (BG) (BU) (AG) (BU) (AG) (BU)
                 (AG) (BU) (AG) (BU) (BU) (AG) (AG) (BU) (AG) (BU)
                 (BU) (AG) (BU) (AG) (AG) (BU) (BU) (AG) (BU) (AG)
                 (BU) (AG) (AG) (BU) (AG) (BU) (AG) (BU) (AG) (BU)
                 (AG) (BU)
 The electronic state of the initial guess is 1-AG.
 Requested convergence on RMS density matrix=1.00D-08 within 128 cycles.
 Requested convergence on MAX density matrix=1.00D-06.
 Requested convergence on             energy=1.00D-06.
 No special actions if energy rises.
 Integral accuracy reduced to 1.0D-05 until final iterations.
 Initial convergence to 1.0D-05 achieved.  Increase integral accuracy.
 SCF Done:  E(RPBE1PBE) =  -874.712080712     A.U. after   15 cycles
            NFock= 15  Conv=0.41D-08     -V/T= 2.0085
 DoSCS=F DFT=T ScalE2(SS,OS)=  1.000000  1.000000
 ExpMin= 1.61D-01 ExpMax= 5.48D+03 ExpMxC= 8.25D+02 IAcc=3 IRadAn=         5 AccDes= 0.00D+00
 HarFok:  IExCor=  205 AccDes= 0.00D+00 IRadAn=         5 IDoV=-2 UseB2=F ITyADJ=14
 ICtDFT= 12500011 ScaDFX=  1.000000  1.000000  1.000000  1.000000
 Range of M.O.s used for correlation:    21   320
 NBasis=   320 NAE=    68 NBE=    68 NFC=    20 NFV=     0
 NROrb=    300 NOA=    48 NOB=    48 NVA=   252 NVB=   252
 Keep R1, R2, and R3 ints in memory in symmetry-blocked form, NReq=2584228222.
 Orbital symmetries:
       Occupied  (BU) (AG) (AG) (BU) (AG) (BU) (BU) (AG) (AG) (BU)
                 (BU) (AG) (AG) (BU) (AG) (BU) (AG) (BU) (AG) (BU)
                 (AG) (BU) (AG) (BU) (AG) (BU) (AG) (BU) (AG) (BU)
                 (AG) (BU) (AG) (BU) (AG) (BU) (BU) (AG) (AG) (BU)
                 (BU) (AG) (AG) (AU) (AG) (BU) (BU) (BU) (AG) (BG)
                 (BU) (AG) (AG) (BU) (BG) (AG) (AU) (AU) (AG) (BU)
                 (BG) (AU) (BU) (BG) (AU) (AG) (BG) (AU)
       Virtual   (BG) (AU) (BG) (AU) (BG) (AU) (BU) (AG) (BU) (AG)
                 (BU) (BG) (AG) (BU) (AG) (BU) (BG) (AG) (AU) (BU)
                 (AG) (BU) (AG) (BU) (AG) (AG) (BU) (AG) (BU) (BU)
                 (AG) (BU) (AG) (BU) (BU) (AG) (BU) (AG) (AG) (BU)
                 (AU) (AG) (BG) (BU) (AU) (AG) (AG) (BU) (BG) (BU)
                 (BU) (AG) (AU) (BG) (BU) (AG) (AG) (BU) (AG) (BU)
                 (AU) (AG) (BU) (BG) (BG) (AU) (AU) (AG) (BG) (BU)
                 (AU) (AG) (BU) (BG) (BG) (AU) (AG) (AG) (BU) (BG)
                 (BU) (AG) (BU) (AG) (AU) (AG) (BU) (AG) (BU) (AG)
                 (BU) (AG) (BU) (BU) (AG) (BU) (AG) (AG) (BU) (AU)
                 (BG) (BU) (BU) (AG) (BU) (AG) (AG) (BU) (BU) (AG)
                 (BU) (AU) (AG) (BG) (AG) (BU) (AU) (BG) (BG) (AU)
                 (AG) (AU) (BU) (AG) (BG) (BU) (AU) (AG) (BU) (BG)
                 (AU) (BG) (AU) (BU) (BG) (AU) (AG) (AG) (AG) (BU)
                 (AG) (BU) (BU) (AG) (BG) (BU) (AG) (AU) (BG) (BU)
                 (BU) (AG) (AU) (BG) (BU) (AG) (AG) (BU) (AG) (BU)
                 (AG) (BU) (AG) (BU) (AU) (AG) (AG) (BU) (BG) (BU)
                 (AG) (BG) (AU) (AG) (BU) (BU) (AG) (BU) (AG) (AU)
                 (BU) (BG) (BG) (AU) (AU) (BU) (BG) (AU) (AG) (BG)
                 (AG) (AU) (AG) (BU) (BG) (BU) (AG) (BU) (AG) (BG)
                 (AU) (BU) (AU) (AG) (BU) (BG) (AG) (BU) (AG) (BU)
                 (AU) (BU) (AG) (BG) (AG) (BU) (BU) (AG) (BU) (AG)
                 (AG) (BU) (AG) (BU) (BU) (AG) (AG) (BU) (AG) (BU)
                 (BU) (AG) (BU) (AG) (BU) (AG) (BU) (AG) (BU) (AG)
                 (AG) (BU) (AG) (BU) (BU) (AG) (AG) (BU) (AG) (BU)
                 (AG) (BU)
    80 initial guesses have been made.
 Convergence on wavefunction:    0.001000000000000
 Iteration     1 Dimension    80 NMult     0 NNew     80
 CISAX will form    80 AO SS matrices at one time.
 New state      2 was old state      3
 New state      3 was old state      2
 New state      4 was old state      7
 New state      5 was old state      4
 New state      6 was old state      5
 New state      7 was old state      6
 New state     11 was old state     12
 New state     12 was old state     11
 New state     13 was old state     17
 New state     14 was old state     13
 New state     16 was old state     18
 New state     17 was old state     16
 New state     18 was old state     21
 New state     19 was old state     20
 New state     20 was old state     14
 Iteration     2 Dimension   120 NMult    80 NNew     40
 New state      2 was old state      3
 New state      3 was old state      2
 New state     13 was old state     14
 New state     14 was old state     13
 New state     18 was old state     20
 New state     20 was old state     18
 Iteration     3 Dimension   160 NMult   120 NNew     40
 Iteration     4 Dimension   200 NMult   160 NNew     40
 Iteration     5 Dimension   208 NMult   200 NNew      8
 ***********************************************************************
 Excited states from <AA,BB:AA,BB> singles matrix:
 ***********************************************************************
 
 Ground to excited state transition densities written to RWF  633
 Ground to excited state transition electric dipole moments (Au):
       state          X           Y           Z        Dip. S.      Osc.
         1         0.6164     -2.1186      0.0000      4.8685      0.2835
         2         0.0000     -0.0000      0.0000      0.0000      0.0000
         3         0.0000     -0.0000     -0.0000      0.0000      0.0000
         4         0.0000      0.0000     -0.0057      0.0000      0.0000
         5        -0.0000     -0.0000      0.0000      0.0000      0.0000
         6        -0.2887     -1.6100      0.0000      2.6754      0.2646
         7         0.0000      0.0000     -0.0000      0.0000      0.0000
         8        -0.0844      0.8308      0.0000      0.6973      0.0738
         9         0.3449      1.7344      0.0000      3.1271      0.3621
        10         0.7221      1.5738     -0.0000      2.9982      0.3574
        11        -0.0000     -0.0000     -0.0402      0.0016      0.0002
        12        -0.0000      0.0000     -0.0000      0.0000      0.0000
        13         0.1707      1.1196     -0.0000      1.2826      0.1743
        14        -0.0000     -0.0000     -0.0000      0.0000      0.0000
        15         0.0000      0.0000      0.0000      0.0000      0.0000
        16        -0.0000     -0.0000      0.0000      0.0000      0.0000
        17        -0.0674      0.8969      0.0000      0.8089      0.1182
        18         0.0000      0.0000     -0.0000      0.0000      0.0000
        19         0.0000     -0.0000     -0.0000      0.0000      0.0000
        20         0.0000      0.0000     -0.0000      0.0000      0.0000
 Ground to excited state transition velocity dipole moments (Au):
       state          X           Y           Z        Dip. S.      Osc.
         1        -0.0588      0.1897     -0.0000      0.0394      0.3010
         2        -0.0000      0.0000     -0.0000      0.0000      0.0000
         3        -0.0000     -0.0000      0.0000      0.0000      0.0000
         4        -0.0000      0.0000     -0.0017      0.0000      0.0000
         5         0.0000      0.0000     -0.0000      0.0000      0.0000
         6         0.0333      0.2237     -0.0000      0.0512      0.2299
         7        -0.0000     -0.0000      0.0000      0.0000      0.0000
         8         0.0054     -0.1237     -0.0000      0.0153      0.0644
         9        -0.0612     -0.3114     -0.0000      0.1007      0.3865
        10        -0.1371     -0.2712     -0.0000      0.0923      0.3442
        11         0.0000      0.0000      0.0100      0.0001      0.0004
        12         0.0000     -0.0000      0.0000      0.0000      0.0000
        13        -0.0325     -0.2130      0.0000      0.0464      0.1517
        14         0.0000      0.0000      0.0000      0.0000      0.0000
        15        -0.0000     -0.0000      0.0000      0.0000      0.0000
        16        -0.0000      0.0000     -0.0000      0.0000      0.0000
        17         0.0213     -0.1920      0.0000      0.0373      0.1136
        18        -0.0000     -0.0000      0.0000      0.0000      0.0000
        19        -0.0000     -0.0000      0.0000      0.0000      0.0000
        20        -0.0000     -0.0000      0.0000      0.0000      0.0000
 Ground to excited state transition magnetic dipole moments (Au):
       state          X           Y           Z
         1         0.0000     -0.0000      0.0000
         2        -0.0000      0.0000      1.6044
         3         0.8033      0.2508      0.0000
         4        -0.0000     -0.0000     -0.0000
         5         0.0000     -0.0000      1.2606
         6         0.0000     -0.0000     -0.0000
         7        -0.0000      0.0000      0.6242
         8        -0.0000      0.0000     -0.0000
         9        -0.0000     -0.0000      0.0000
        10         0.0000     -0.0000     -0.0000
        11         0.0000     -0.0000     -0.0000
        12         0.0000      0.0000      0.5436
        13         0.0000      0.0000      0.0000
        14         0.4853      0.3374     -0.0000
        15         0.0000      0.0000      0.1348
        16        -0.0000      0.0000     -0.2275
        17         0.0000      0.0000     -0.0000
        18         0.0000      0.0000      0.4903
        19        -0.0000     -0.0000      0.0002
        20        -0.2131     -0.0257      0.0000
 Ground to excited state transition velocity quadrupole moments (Au):
       state          XX          YY          ZZ          XY          XZ          YZ
         1         0.0000     -0.0000     -0.0000     -0.0000     -0.0000      0.0000
         2         0.0993     -0.1436     -0.0092     -0.3581     -0.0000     -0.0000
         3         0.0000     -0.0000     -0.0000     -0.0000     -0.0043      0.0228
         4         0.0000     -0.0000     -0.0000      0.0000     -0.0000      0.0000
         5         0.0478     -0.0215     -0.0011     -0.5998      0.0000      0.0000
         6        -0.0000      0.0000     -0.0000      0.0000      0.0000      0.0000
         7         0.1908     -1.5928     -0.0147     -0.2610     -0.0000     -0.0000
         8        -0.0000      0.0000      0.0000     -0.0000     -0.0000     -0.0000
         9        -0.0000     -0.0000     -0.0000      0.0000      0.0000      0.0000
        10         0.0000     -0.0000     -0.0000      0.0000      0.0000      0.0000
        11         0.0000     -0.0000     -0.0000      0.0000      0.0000      0.0000
        12        -0.0699      1.4305      0.0278     -0.0530     -0.0000      0.0000
        13         0.0000     -0.0000     -0.0000     -0.0000     -0.0000      0.0000
        14         0.0000      0.0000      0.0000      0.0000     -0.0326      0.0650
        15        -0.1254     -1.0169     -0.0177     -0.4275     -0.0000     -0.0000
        16         0.0351      3.3702      0.0217      0.4152     -0.0000     -0.0000
        17         0.0000     -0.0000     -0.0000     -0.0000     -0.0000      0.0000
        18        -0.1354      2.4507      0.0171     -0.2187     -0.0000      0.0000
        19        -0.0708      0.1055     -0.0176      0.5014      0.0000     -0.0000
        20        -0.0000      0.0000      0.0000     -0.0000      0.0011      0.0154
 <0|del|b> * <b|rxdel|0> + <0|del|b> * <b|delr+rdel|0>
 Rotatory Strengths (R) in cgs (10**-40 erg-esu-cm/Gauss)
       state          XX          YY          ZZ    R(velocity)    E-M Angle
         1         0.0000     -0.0000      0.0000     -0.0000       90.00
         2        -0.0000     -0.0000      0.0000     -0.0000       90.00
         3        -0.0000     -0.0000     -0.0000     -0.0000       90.00
         4         0.0000      0.0000     -0.0000      0.0000       90.00
         5        -0.0000     -0.0000      0.0000     -0.0000       90.00
         6        -0.0000      0.0000     -0.0000     -0.0000       90.00
         7         0.0000      0.0000      0.0000      0.0000       90.00
         8        -0.0000     -0.0000      0.0000     -0.0000       90.00
         9         0.0000      0.0000      0.0000      0.0000       90.00
        10         0.0000     -0.0000     -0.0000      0.0000       90.00
        11        -0.0000     -0.0000     -0.0000     -0.0000       90.00
        12         0.0000      0.0000     -0.0000      0.0000       90.00
        13        -0.0000     -0.0000     -0.0000     -0.0000       90.00
        14         0.0000      0.0000      0.0000      0.0000       90.00
        15        -0.0000      0.0000     -0.0000      0.0000       90.00
        16        -0.0000      0.0000      0.0000      0.0000       90.00
        17        -0.0000      0.0000      0.0000      0.0000       90.00
        18         0.0000      0.0000     -0.0000      0.0000       90.00
        19         0.0000     -0.0000      0.0000      0.0000       90.00
        20         0.0000      0.0000      0.0000      0.0000       90.00
 1/2[<0|r|b>*<b|rxdel|0> + (<0|rxdel|b>*<b|r|0>)*]
 Rotatory Strengths (R) in cgs (10**-40 erg-esu-cm/Gauss)
       state          XX          YY          ZZ     R(length)
         1        -0.0000     -0.0000     -0.0000     -0.0000
         2         0.0000      0.0000     -0.0000     -0.0000
         3        -0.0000      0.0000      0.0000      0.0000
         4         0.0000      0.0000     -0.0000     -0.0000
         5         0.0000     -0.0000     -0.0000     -0.0000
         6         0.0000     -0.0000      0.0000     -0.0000
         7         0.0000     -0.0000      0.0000      0.0000
         8        -0.0000     -0.0000      0.0000     -0.0000
         9         0.0000      0.0000     -0.0000      0.0000
        10        -0.0000      0.0000     -0.0000      0.0000
        11         0.0000     -0.0000     -0.0000     -0.0000
        12         0.0000     -0.0000      0.0000      0.0000
        13        -0.0000     -0.0000      0.0000     -0.0000
        14         0.0000      0.0000     -0.0000      0.0000
        15        -0.0000     -0.0000     -0.0000     -0.0000
        16        -0.0000      0.0000      0.0000      0.0000
        17         0.0000     -0.0000      0.0000     -0.0000
        18        -0.0000     -0.0000      0.0000      0.0000
        19         0.0000     -0.0000      0.0000      0.0000
        20         0.0000      0.0000      0.0000      0.0000
  1/2[<0|del|b>*<b|r|0> + (<0|r|b>*<b|del|0>)*] (Au)
       state          X           Y           Z        Dip. S.   Osc.(frdel)
         1        -0.0363     -0.4019     -0.0000      0.4382      0.2921
         2        -0.0000     -0.0000     -0.0000      0.0000      0.0000
         3        -0.0000      0.0000     -0.0000      0.0000      0.0000
         4        -0.0000      0.0000      0.0000     -0.0000     -0.0000
         5        -0.0000     -0.0000     -0.0000      0.0000      0.0000
         6        -0.0096     -0.3602     -0.0000      0.3698      0.2465
         7        -0.0000     -0.0000     -0.0000      0.0000      0.0000
         8        -0.0005     -0.1028     -0.0000      0.1032      0.0688
         9        -0.0211     -0.5400     -0.0000      0.5611      0.3741
        10        -0.0990     -0.4268      0.0000      0.5257      0.3505
        11        -0.0000     -0.0000     -0.0004      0.0004      0.0003
        12        -0.0000     -0.0000     -0.0000      0.0000      0.0000
        13        -0.0055     -0.2384     -0.0000      0.2440      0.1626
        14        -0.0000     -0.0000     -0.0000      0.0000      0.0000
        15        -0.0000     -0.0000      0.0000      0.0000      0.0000
        16         0.0000     -0.0000     -0.0000      0.0000      0.0000
        17        -0.0014     -0.1722      0.0000      0.1737      0.1158
        18        -0.0000     -0.0000     -0.0000      0.0000      0.0000
        19        -0.0000      0.0000     -0.0000      0.0000      0.0000
        20        -0.0000     -0.0000     -0.0000      0.0000      0.0000

 Excitation energies and oscillator strengths:
 
 Excited State   1:      Singlet-BU     2.3771 eV  521.57 nm  f=0.2835  <S**2>=0.000
      68 -> 69         0.70727
      68 <- 69        -0.10931
 This state for optimization and/or second-order correction.
 Total Energy, E(TD-HF/TD-DFT) =  -874.624723421    
 Copying the excited state density for this state as the 1-particle RhoCI density.
 
 Excited State   2:      Singlet-AG     2.9140 eV  425.47 nm  f=0.0000  <S**2>=0.000
      67 -> 69         0.70296
 
 Excited State   3:      Singlet-BG     2.9345 eV  422.51 nm  f=0.0000  <S**2>=0.000
      66 -> 69         0.69515
 
 Excited State   4:      Singlet-AU     3.4184 eV  362.70 nm  f=0.0000  <S**2>=0.000
      63 -> 69         0.68193
      66 -> 70         0.15727
 
 Excited State   5:      Singlet-AG     3.7714 eV  328.75 nm  f=0.0000  <S**2>=0.000
      64 -> 69        -0.17066
      68 -> 70         0.67841
 
 Excited State   6:      Singlet-BU     4.0365 eV  307.16 nm  f=0.2646  <S**2>=0.000
      62 -> 69        -0.10325
      65 -> 69         0.67525
      68 -> 71         0.14458
 
 Excited State   7:      Singlet-AG     4.2151 eV  294.14 nm  f=0.0000  <S**2>=0.000
      64 -> 69         0.67041
      68 -> 70         0.17973
 
 Excited State   8:      Singlet-BU     4.3178 eV  287.15 nm  f=0.0738  <S**2>=0.000
      62 -> 69         0.66985
      67 -> 70         0.16146
 
 Excited State   9:      Singlet-BU     4.7262 eV  262.33 nm  f=0.3621  <S**2>=0.000
      65 -> 69        -0.13626
      68 -> 71         0.68414
 
 Excited State  10:      Singlet-BU     4.8659 eV  254.80 nm  f=0.3574  <S**2>=0.000
      62 -> 69        -0.14941
      67 -> 70         0.64598
      68 -> 73        -0.16917
 
 Excited State  11:      Singlet-AU     5.1121 eV  242.53 nm  f=0.0002  <S**2>=0.000
      63 -> 69        -0.16380
      66 -> 70         0.68039
 
 Excited State  12:      Singlet-AG     5.2370 eV  236.75 nm  f=0.0000  <S**2>=0.000
      62 -> 70         0.11035
      65 -> 70        -0.20494
      67 -> 71         0.13068
      68 -> 72         0.64738
 
 Excited State  13:      Singlet-BU     5.5473 eV  223.50 nm  f=0.1743  <S**2>=0.000
      64 -> 70        -0.15742
      67 -> 70         0.15954
      68 -> 73         0.65491
 
 Excited State  14:      Singlet-BG     5.6041 eV  221.24 nm  f=0.0000  <S**2>=0.000
      63 -> 70         0.67272
      66 -> 69        -0.10181
      66 -> 71         0.16266
 
 Excited State  15:      Singlet-AG     5.8036 eV  213.63 nm  f=0.0000  <S**2>=0.000
      62 -> 70         0.13321
      65 -> 70         0.35411
      65 -> 72         0.14096
      67 -> 71         0.55074
 
 Excited State  16:      Singlet-AG     5.9418 eV  208.67 nm  f=0.0000  <S**2>=0.000
      61 -> 69        -0.10863
      62 -> 70        -0.37075
      62 -> 72        -0.10100
      64 -> 71        -0.12081
      64 -> 73        -0.11862
      65 -> 70         0.41705
      65 -> 72        -0.12792
      67 -> 73         0.16416
      68 -> 72         0.23521
      68 -> 74        -0.13449
 
 Excited State  17:      Singlet-BU     5.9632 eV  207.91 nm  f=0.1182  <S**2>=0.000
      64 -> 70         0.62682
      67 -> 72         0.24421
      68 -> 73         0.10067
 
 Excited State  18:      Singlet-AG     6.0927 eV  203.50 nm  f=0.0000  <S**2>=0.000
      61 -> 69         0.20302
      62 -> 70         0.51180
      65 -> 70         0.27414
      67 -> 71        -0.22535
      67 -> 73         0.16284
      68 -> 74        -0.17326
 
 Excited State  19:      Singlet-AG     6.1283 eV  202.31 nm  f=0.0000  <S**2>=0.000
      61 -> 69         0.63850
      62 -> 70        -0.17034
      67 -> 71         0.16831
 
 Excited State  20:      Singlet-BG     6.2071 eV  199.75 nm  f=0.0000  <S**2>=0.000
      63 -> 70        -0.14606
      66 -> 71         0.67307
 SavETr:  write IOETrn=   770 NScale= 10 NData=  16 NLR=1 NState=   20 LETran=     370.

 **********************************************************************

            Population analysis using the SCF density.

 **********************************************************************

 Orbital symmetries:
       Occupied  (BU) (AG) (AG) (BU) (AG) (BU) (BU) (AG) (AG) (BU)
                 (BU) (AG) (AG) (BU) (AG) (BU) (AG) (BU) (AG) (BU)
                 (AG) (BU) (AG) (BU) (AG) (BU) (AG) (BU) (AG) (BU)
                 (AG) (BU) (AG) (BU) (AG) (BU) (BU) (AG) (AG) (BU)
                 (BU) (AG) (AG) (AU) (AG) (BU) (BU) (BU) (AG) (BG)
                 (BU) (AG) (AG) (BU) (BG) (AG) (AU) (AU) (AG) (BU)
                 (BG) (AU) (BU) (BG) (AU) (AG) (BG) (AU)
       Virtual   (BG) (AU) (BG) (AU) (BG) (AU) (BU) (AG) (BU) (AG)
                 (BU) (BG) (AG) (BU) (AG) (BU) (BG) (AG) (AU) (BU)
                 (AG) (BU) (AG) (BU) (AG) (AG) (BU) (AG) (BU) (BU)
                 (AG) (BU) (AG) (BU) (BU) (AG) (BU) (AG) (AG) (BU)
                 (AU) (AG) (BG) (BU) (AU) (AG) (AG) (BU) (BG) (BU)
                 (BU) (AG) (AU) (BG) (BU) (AG) (AG) (BU) (AG) (BU)
                 (AU) (AG) (BU) (BG) (BG) (AU) (AU) (AG) (BG) (BU)
                 (AU) (AG) (BU) (BG) (BG) (AU) (AG) (AG) (BU) (BG)
                 (BU) (AG) (BU) (AG) (AU) (AG) (BU) (AG) (BU) (AG)
                 (BU) (AG) (BU) (BU) (AG) (BU) (AG) (AG) (BU) (AU)
                 (BG) (BU) (BU) (AG) (BU) (AG) (AG) (BU) (BU) (AG)
                 (BU) (AU) (AG) (BG) (AG) (BU) (AU) (BG) (BG) (AU)
                 (AG) (AU) (BU) (AG) (BG) (BU) (AU) (AG) (BU) (BG)
                 (AU) (BG) (AU) (BU) (BG) (AU) (AG) (AG) (AG) (BU)
                 (AG) (BU) (BU) (AG) (BG) (BU) (AG) (AU) (BG) (BU)
                 (BU) (AG) (AU) (BG) (BU) (AG) (AG) (BU) (AG) (BU)
                 (AG) (BU) (AG) (BU) (AU) (AG) (AG) (BU) (BG) (BU)
                 (AG) (BG) (AU) (AG) (BU) (BU) (AG) (BU) (AG) (AU)
                 (BU) (BG) (BG) (AU) (AU) (BU) (BG) (AU) (AG) (BG)
                 (AG) (AU) (AG) (BU) (BG) (BU) (AG) (BU) (AG) (BG)
                 (AU) (BU) (AU) (AG) (BU) (BG) (AG) (BU) (AG) (BU)
                 (AU) (BU) (AG) (BG) (AG) (BU) (BU) (AG) (BU) (AG)
                 (AG) (BU) (AG) (BU) (BU) (AG) (AG) (BU) (AG) (BU)
                 (BU) (AG) (BU) (AG) (BU) (AG) (BU) (AG) (BU) (AG)
                 (AG) (BU) (AG) (BU) (BU) (AG) (AG) (BU) (AG) (BU)
                 (AG) (BU)
 The electronic state is 1-AG.
 Alpha  occ. eigenvalues --  -19.21764 -19.21764 -14.44856 -14.44856 -10.32512
 Alpha  occ. eigenvalues --  -10.32512 -10.29536 -10.29536 -10.29278 -10.29200
 Alpha  occ. eigenvalues --  -10.25749 -10.25749 -10.25563 -10.25563 -10.25202
 Alpha  occ. eigenvalues --  -10.25202 -10.24442 -10.24442 -10.24342 -10.24342
 Alpha  occ. eigenvalues --   -1.07145  -1.06533  -1.02020  -1.01417  -0.88829
 Alpha  occ. eigenvalues --   -0.88253  -0.81324  -0.80360  -0.79736  -0.77488
 Alpha  occ. eigenvalues --   -0.76118  -0.72556  -0.68114  -0.64832  -0.62932
 Alpha  occ. eigenvalues --   -0.61410  -0.58988  -0.58865  -0.55911  -0.55548
 Alpha  occ. eigenvalues --   -0.52667  -0.52048  -0.49536  -0.47918  -0.47002
 Alpha  occ. eigenvalues --   -0.46882  -0.46328  -0.45948  -0.45849  -0.45057
 Alpha  occ. eigenvalues --   -0.44109  -0.43946  -0.43862  -0.39146  -0.39031
 Alpha  occ. eigenvalues --   -0.38690  -0.38652  -0.37343  -0.37012  -0.37001
 Alpha  occ. eigenvalues --   -0.35612  -0.28349  -0.28190  -0.27665  -0.27378
 Alpha  occ. eigenvalues --   -0.26213  -0.24053  -0.20180
 Alpha virt. eigenvalues --   -0.09899  -0.03557  -0.00008   0.01608   0.02756
 Alpha virt. eigenvalues --    0.06964   0.10191   0.10432   0.11386   0.12899
 Alpha virt. eigenvalues --    0.13970   0.14420   0.15505   0.17316   0.18049
 Alpha virt. eigenvalues --    0.18398   0.18571   0.18595   0.18601   0.19483
 Alpha virt. eigenvalues --    0.22783   0.23971   0.25618   0.26795   0.27680
 Alpha virt. eigenvalues --    0.30071   0.30196   0.30973   0.31915   0.32158
 Alpha virt. eigenvalues --    0.34422   0.35094   0.35515   0.35794   0.41404
 Alpha virt. eigenvalues --    0.42351   0.44577   0.46033   0.50345   0.51506
 Alpha virt. eigenvalues --    0.51725   0.52405   0.52793   0.53458   0.54815
 Alpha virt. eigenvalues --    0.55049   0.55466   0.55675   0.57227   0.57449
 Alpha virt. eigenvalues --    0.58281   0.59393   0.60001   0.60345   0.61172
 Alpha virt. eigenvalues --    0.61400   0.61711   0.61895   0.62185   0.62279
 Alpha virt. eigenvalues --    0.62859   0.63004   0.63867   0.64863   0.65848
 Alpha virt. eigenvalues --    0.66943   0.69490   0.69875   0.71225   0.71803
 Alpha virt. eigenvalues --    0.74308   0.75130   0.77058   0.77636   0.80075
 Alpha virt. eigenvalues --    0.80671   0.82188   0.82907   0.83877   0.84453
 Alpha virt. eigenvalues --    0.84711   0.84838   0.85904   0.86443   0.86797
 Alpha virt. eigenvalues --    0.87090   0.88261   0.91169   0.91821   0.92282
 Alpha virt. eigenvalues --    0.92941   0.95992   0.96211   0.97284   0.98510
 Alpha virt. eigenvalues --    0.99915   1.00149   1.01673   1.02202   1.03888
 Alpha virt. eigenvalues --    1.05412   1.06323   1.07046   1.08999   1.11033
 Alpha virt. eigenvalues --    1.11585   1.14632   1.15389   1.16204   1.19371
 Alpha virt. eigenvalues --    1.20822   1.21470   1.21565   1.24154   1.24226
 Alpha virt. eigenvalues --    1.27204   1.28234   1.30674   1.32558   1.32911
 Alpha virt. eigenvalues --    1.33292   1.34079   1.34977   1.35715   1.40210
 Alpha virt. eigenvalues --    1.42132   1.42329   1.43161   1.44476   1.44889
 Alpha virt. eigenvalues --    1.45209   1.47530   1.47616   1.48356   1.49316
 Alpha virt. eigenvalues --    1.49350   1.49514   1.53431   1.56824   1.58961
 Alpha virt. eigenvalues --    1.62133   1.62377   1.69614   1.70851   1.72344
 Alpha virt. eigenvalues --    1.73603   1.75026   1.76252   1.76637   1.76833
 Alpha virt. eigenvalues --    1.79541   1.82032   1.83335   1.86058   1.86193
 Alpha virt. eigenvalues --    1.88034   1.88599   1.88779   1.90358   1.92798
 Alpha virt. eigenvalues --    1.92807   1.95384   1.95686   1.95977   1.96315
 Alpha virt. eigenvalues --    1.99480   2.00967   2.01262   2.02550   2.03964
 Alpha virt. eigenvalues --    2.06404   2.07963   2.08789   2.09246   2.09729
 Alpha virt. eigenvalues --    2.11185   2.14284   2.14749   2.16426   2.18348
 Alpha virt. eigenvalues --    2.20646   2.22454   2.24251   2.24617   2.26383
 Alpha virt. eigenvalues --    2.27427   2.28555   2.29201   2.29217   2.32528
 Alpha virt. eigenvalues --    2.33358   2.39268   2.39494   2.40601   2.42075
 Alpha virt. eigenvalues --    2.43696   2.48950   2.50181   2.51967   2.53206
 Alpha virt. eigenvalues --    2.56421   2.57631   2.61095   2.62537   2.64485
 Alpha virt. eigenvalues --    2.66333   2.66340   2.67121   2.68116   2.70295
 Alpha virt. eigenvalues --    2.72600   2.74073   2.74276   2.76575   2.78387
 Alpha virt. eigenvalues --    2.84315   2.84561   2.84668   2.89907   2.91542
 Alpha virt. eigenvalues --    2.94322   2.96955   2.97973   3.00223   3.04688
 Alpha virt. eigenvalues --    3.09805   3.24515   3.28002   3.31708   3.33979
 Alpha virt. eigenvalues --    3.45268   3.52619   3.99751   4.01546   4.11733
 Alpha virt. eigenvalues --    4.11778   4.13680   4.14683   4.17804   4.19135
 Alpha virt. eigenvalues --    4.27704   4.28530   4.33966   4.40330   4.42391
 Alpha virt. eigenvalues --    4.42808   4.53462   4.69180   4.71297   4.73624
 Alpha virt. eigenvalues --    4.89263   4.92712
          Condensed to atoms (all electrons):
               1          2          3          4          5          6
     1  C    4.938284   0.533243  -0.038871  -0.035936  -0.023977   0.514414
     2  C    0.533243   4.885125   0.523036  -0.006278  -0.036042  -0.031940
     3  C   -0.038871   0.523036   5.051183   0.514513  -0.051183  -0.046788
     4  C   -0.035936  -0.006278   0.514513   4.602653   0.496789  -0.056319
     5  C   -0.023977  -0.036042  -0.051183   0.496789   5.070882   0.509658
     6  C    0.514414  -0.031940  -0.046788  -0.056319   0.509658   5.003054
     7  N   -0.000095   0.005465  -0.081203   0.237649  -0.042820   0.009700
     8  C   -0.000171  -0.000170   0.000802  -0.076072  -0.102649   0.012207
     9  C    0.006389  -0.000120   0.011164  -0.024089   0.294909  -0.058464
    10  O    0.000157  -0.000001  -0.000069   0.003682  -0.079616   0.001655
    11  C    0.000003   0.000007  -0.000456   0.002640   0.015083  -0.000332
    12  C    0.000000  -0.000000   0.000007   0.000599  -0.000309  -0.000000
    13  C    0.000000  -0.000000  -0.000000   0.000009  -0.000000   0.000000
    14  C    0.000000   0.000000   0.000000   0.000004   0.000009  -0.000000
    15  N    0.000000  -0.000000   0.000001  -0.000029   0.000077  -0.000001
    16  O    0.000000  -0.000000  -0.000007   0.000724  -0.000049  -0.000000
    17  C   -0.000000   0.000000  -0.000000  -0.000000   0.000000   0.000000
    18  C    0.000000  -0.000000   0.000000   0.000000   0.000000  -0.000000
    19  C   -0.000000   0.000000  -0.000000   0.000000  -0.000000   0.000000
    20  C    0.000000  -0.000000  -0.000000   0.000000  -0.000000  -0.000000
    21  H    0.369448  -0.036875   0.003905   0.000841   0.002231  -0.035554
    22  H   -0.036090   0.366611  -0.035677   0.002299   0.000973   0.003715
    23  H    0.003624  -0.036525   0.359994  -0.034477   0.003999   0.000422
    24  H   -0.039629   0.003886   0.000313   0.004463  -0.037317   0.363663
    25  H    0.000003  -0.000061  -0.002183  -0.017969   0.002503  -0.000051
    26  H   -0.000000   0.000000   0.000000  -0.000023   0.000618  -0.000009
    27  H   -0.000000   0.000000   0.000000  -0.000000   0.000000   0.000000
    28  H   -0.000000   0.000000   0.000000  -0.000000   0.000000   0.000000
    29  H    0.000000  -0.000000   0.000000  -0.000000  -0.000000  -0.000000
    30  H    0.000000  -0.000000   0.000000   0.000000  -0.000000   0.000000
               7          8          9         10         11         12
     1  C   -0.000095  -0.000171   0.006389   0.000157   0.000003   0.000000
     2  C    0.005465  -0.000170  -0.000120  -0.000001   0.000007  -0.000000
     3  C   -0.081203   0.000802   0.011164  -0.000069  -0.000456   0.000007
     4  C    0.237649  -0.076072  -0.024089   0.003682   0.002640   0.000599
     5  C   -0.042820  -0.102649   0.294909  -0.079616   0.015083  -0.000309
     6  C    0.009700   0.012207  -0.058464   0.001655  -0.000332  -0.000000
     7  N    7.291565   0.290667  -0.064822   0.004101  -0.067036  -0.011634
     8  C    0.290667   5.198708   0.261786  -0.089940   0.378113  -0.048364
     9  C   -0.064822   0.261786   4.664515   0.560682  -0.048364   0.004452
    10  O    0.004101  -0.089940   0.560682   8.100564  -0.006831   0.000200
    11  C   -0.067036   0.378113  -0.048364  -0.006831   5.198708   0.261786
    12  C   -0.011634  -0.048364   0.004452   0.000200   0.261786   4.664515
    13  C    0.000077   0.015083  -0.000309  -0.000049  -0.102649   0.294909
    14  C   -0.000029   0.002640   0.000599   0.000724  -0.076072  -0.024089
    15  N    0.004917  -0.067036  -0.011634  -0.005706   0.290667  -0.064822
    16  O   -0.005706  -0.006831   0.000200   0.000000  -0.089940   0.560682
    17  C   -0.000001  -0.000332  -0.000000  -0.000000   0.012207  -0.058464
    18  C    0.000000   0.000003   0.000000   0.000000  -0.000171   0.006389
    19  C   -0.000000   0.000007  -0.000000  -0.000000  -0.000170  -0.000120
    20  C    0.000001  -0.000456   0.000007  -0.000007   0.000802   0.011164
    21  H    0.000003   0.000005  -0.000131   0.000001  -0.000000   0.000000
    22  H   -0.000100   0.000001   0.000013  -0.000000  -0.000000  -0.000000
    23  H   -0.004751   0.000197  -0.000240   0.000000   0.000011  -0.000001
    24  H   -0.000135   0.000451  -0.004918   0.003747   0.000003  -0.000000
    25  H    0.297835  -0.017066   0.003574  -0.000034  -0.012684   0.001544
    26  H   -0.000002  -0.012684   0.001544   0.031201  -0.017066   0.003574
    27  H   -0.000000   0.000003  -0.000000  -0.000000   0.000451  -0.004918
    28  H   -0.000000  -0.000000   0.000000  -0.000000   0.000005  -0.000131
    29  H    0.000000  -0.000000  -0.000000  -0.000000   0.000001   0.000013
    30  H   -0.000000   0.000011  -0.000001  -0.000003   0.000197  -0.000240
              13         14         15         16         17         18
     1  C    0.000000   0.000000   0.000000   0.000000  -0.000000   0.000000
     2  C   -0.000000   0.000000  -0.000000  -0.000000   0.000000  -0.000000
     3  C   -0.000000   0.000000   0.000001  -0.000007  -0.000000   0.000000
     4  C    0.000009   0.000004  -0.000029   0.000724  -0.000000   0.000000
     5  C   -0.000000   0.000009   0.000077  -0.000049   0.000000   0.000000
     6  C    0.000000  -0.000000  -0.000001  -0.000000   0.000000  -0.000000
     7  N    0.000077  -0.000029   0.004917  -0.005706  -0.000001   0.000000
     8  C    0.015083   0.002640  -0.067036  -0.006831  -0.000332   0.000003
     9  C   -0.000309   0.000599  -0.011634   0.000200  -0.000000   0.000000
    10  O   -0.000049   0.000724  -0.005706   0.000000  -0.000000   0.000000
    11  C   -0.102649  -0.076072   0.290667  -0.089940   0.012207  -0.000171
    12  C    0.294909  -0.024089  -0.064822   0.560682  -0.058464   0.006389
    13  C    5.070882   0.496789  -0.042820  -0.079616   0.509658  -0.023977
    14  C    0.496789   4.602653   0.237649   0.003682  -0.056319  -0.035936
    15  N   -0.042820   0.237649   7.291565   0.004101   0.009700  -0.000095
    16  O   -0.079616   0.003682   0.004101   8.100564   0.001655   0.000157
    17  C    0.509658  -0.056319   0.009700   0.001655   5.003054   0.514414
    18  C   -0.023977  -0.035936  -0.000095   0.000157   0.514414   4.938284
    19  C   -0.036042  -0.006278   0.005465  -0.000001  -0.031940   0.533243
    20  C   -0.051183   0.514513  -0.081203  -0.000069  -0.046788  -0.038871
    21  H    0.000000  -0.000000  -0.000000  -0.000000   0.000000  -0.000000
    22  H   -0.000000  -0.000000   0.000000  -0.000000  -0.000000   0.000000
    23  H   -0.000000   0.000000  -0.000000  -0.000003   0.000000   0.000000
    24  H    0.000000  -0.000000  -0.000000  -0.000000   0.000000  -0.000000
    25  H    0.000618  -0.000023  -0.000002   0.031201  -0.000009  -0.000000
    26  H    0.002503  -0.017969   0.297835  -0.000034  -0.000051   0.000003
    27  H   -0.037317   0.004463  -0.000135   0.003747   0.363663  -0.039629
    28  H    0.002231   0.000841   0.000003   0.000001  -0.035554   0.369448
    29  H    0.000973   0.002299  -0.000100  -0.000000   0.003715  -0.036090
    30  H    0.003999  -0.034477  -0.004751   0.000000   0.000422   0.003624
              19         20         21         22         23         24
     1  C   -0.000000   0.000000   0.369448  -0.036090   0.003624  -0.039629
     2  C    0.000000  -0.000000  -0.036875   0.366611  -0.036525   0.003886
     3  C   -0.000000  -0.000000   0.003905  -0.035677   0.359994   0.000313
     4  C    0.000000   0.000000   0.000841   0.002299  -0.034477   0.004463
     5  C   -0.000000  -0.000000   0.002231   0.000973   0.003999  -0.037317
     6  C    0.000000  -0.000000  -0.035554   0.003715   0.000422   0.363663
     7  N   -0.000000   0.000001   0.000003  -0.000100  -0.004751  -0.000135
     8  C    0.000007  -0.000456   0.000005   0.000001   0.000197   0.000451
     9  C   -0.000000   0.000007  -0.000131   0.000013  -0.000240  -0.004918
    10  O   -0.000000  -0.000007   0.000001  -0.000000   0.000000   0.003747
    11  C   -0.000170   0.000802  -0.000000  -0.000000   0.000011   0.000003
    12  C   -0.000120   0.011164   0.000000  -0.000000  -0.000001  -0.000000
    13  C   -0.036042  -0.051183   0.000000  -0.000000  -0.000000   0.000000
    14  C   -0.006278   0.514513  -0.000000  -0.000000   0.000000  -0.000000
    15  N    0.005465  -0.081203  -0.000000   0.000000  -0.000000  -0.000000
    16  O   -0.000001  -0.000069  -0.000000  -0.000000  -0.000003  -0.000000
    17  C   -0.031940  -0.046788   0.000000  -0.000000   0.000000   0.000000
    18  C    0.533243  -0.038871  -0.000000   0.000000   0.000000  -0.000000
    19  C    4.885125   0.523036   0.000000  -0.000000  -0.000000   0.000000
    20  C    0.523036   5.051183   0.000000   0.000000   0.000000   0.000000
    21  H    0.000000   0.000000   0.527936  -0.004182  -0.000133  -0.003372
    22  H   -0.000000   0.000000  -0.004182   0.527021  -0.004272  -0.000147
    23  H   -0.000000   0.000000  -0.000133  -0.004272   0.527284   0.000016
    24  H    0.000000   0.000000  -0.003372  -0.000147   0.000016   0.512432
    25  H    0.000000   0.000000  -0.000000  -0.000002   0.001952   0.000003
    26  H   -0.000061  -0.002183  -0.000000   0.000000  -0.000000  -0.000002
    27  H    0.003886   0.000313   0.000000  -0.000000   0.000000   0.000000
    28  H   -0.036875   0.003905   0.000000  -0.000000   0.000000   0.000000
    29  H    0.366611  -0.035677  -0.000000   0.000000  -0.000000  -0.000000
    30  H   -0.036525   0.359994   0.000000  -0.000000   0.000000   0.000000
              25         26         27         28         29         30
     1  C    0.000003  -0.000000  -0.000000  -0.000000   0.000000   0.000000
     2  C   -0.000061   0.000000   0.000000   0.000000  -0.000000  -0.000000
     3  C   -0.002183   0.000000   0.000000   0.000000   0.000000   0.000000
     4  C   -0.017969  -0.000023  -0.000000  -0.000000  -0.000000   0.000000
     5  C    0.002503   0.000618   0.000000   0.000000  -0.000000  -0.000000
     6  C   -0.000051  -0.000009   0.000000   0.000000  -0.000000   0.000000
     7  N    0.297835  -0.000002  -0.000000  -0.000000   0.000000  -0.000000
     8  C   -0.017066  -0.012684   0.000003  -0.000000  -0.000000   0.000011
     9  C    0.003574   0.001544  -0.000000   0.000000  -0.000000  -0.000001
    10  O   -0.000034   0.031201  -0.000000  -0.000000  -0.000000  -0.000003
    11  C   -0.012684  -0.017066   0.000451   0.000005   0.000001   0.000197
    12  C    0.001544   0.003574  -0.004918  -0.000131   0.000013  -0.000240
    13  C    0.000618   0.002503  -0.037317   0.002231   0.000973   0.003999
    14  C   -0.000023  -0.017969   0.004463   0.000841   0.002299  -0.034477
    15  N   -0.000002   0.297835  -0.000135   0.000003  -0.000100  -0.004751
    16  O    0.031201  -0.000034   0.003747   0.000001  -0.000000   0.000000
    17  C   -0.000009  -0.000051   0.363663  -0.035554   0.003715   0.000422
    18  C   -0.000000   0.000003  -0.039629   0.369448  -0.036090   0.003624
    19  C    0.000000  -0.000061   0.003886  -0.036875   0.366611  -0.036525
    20  C    0.000000  -0.002183   0.000313   0.003905  -0.035677   0.359994
    21  H   -0.000000  -0.000000   0.000000   0.000000  -0.000000   0.000000
    22  H   -0.000002   0.000000  -0.000000  -0.000000   0.000000  -0.000000
    23  H    0.001952  -0.000000   0.000000   0.000000  -0.000000   0.000000
    24  H    0.000003  -0.000002   0.000000   0.000000  -0.000000   0.000000
    25  H    0.325164  -0.000017  -0.000002  -0.000000   0.000000  -0.000000
    26  H   -0.000017   0.325164   0.000003  -0.000000  -0.000002   0.001952
    27  H   -0.000002   0.000003   0.512432  -0.003372  -0.000147   0.000016
    28  H   -0.000000  -0.000000  -0.003372   0.527936  -0.004182  -0.000133
    29  H    0.000000  -0.000002  -0.000147  -0.004182   0.527021  -0.004272
    30  H   -0.000000   0.001952   0.000016  -0.000133  -0.004272   0.527284
 Mulliken charges:
               1
     1  C   -0.190797
     2  C   -0.169362
     3  C   -0.208482
     4  C    0.384328
     5  C   -0.023769
     6  C   -0.189030
     7  N   -0.863646
     8  C    0.261088
     9  C    0.403260
    10  O   -0.524457
    11  C    0.261088
    12  C    0.403260
    13  C   -0.023769
    14  C    0.384328
    15  N   -0.863646
    16  O   -0.524457
    17  C   -0.189030
    18  C   -0.190797
    19  C   -0.169362
    20  C   -0.208482
    21  H    0.175878
    22  H    0.179837
    23  H    0.182903
    24  H    0.196542
    25  H    0.385706
    26  H    0.385706
    27  H    0.196542
    28  H    0.175878
    29  H    0.179837
    30  H    0.182903
 Sum of Mulliken charges =  -0.00000
 Mulliken charges with hydrogens summed into heavy atoms:
               1
     1  C   -0.014919
     2  C    0.010475
     3  C   -0.025579
     4  C    0.384328
     5  C   -0.023769
     6  C    0.007513
     7  N   -0.477940
     8  C    0.261088
     9  C    0.403260
    10  O   -0.524457
    11  C    0.261088
    12  C    0.403260
    13  C   -0.023769
    14  C    0.384328
    15  N   -0.477940
    16  O   -0.524457
    17  C    0.007513
    18  C   -0.014919
    19  C    0.010475
    20  C   -0.025579
 Electronic spatial extent (au):  <R**2>=           6631.1545
 Charge=             -0.0000 electrons
 Dipole moment (field-independent basis, Debye):
    X=              0.0000    Y=              0.0000    Z=              0.0000  Tot=              0.0000
 Quadrupole moment (field-independent basis, Debye-Ang):
   XX=           -109.8005   YY=            -85.2774   ZZ=           -116.7096
   XY=             10.0360   XZ=              0.0000   YZ=              0.0000
 Traceless Quadrupole moment (field-independent basis, Debye-Ang):
   XX=             -5.8714   YY=             18.6518   ZZ=            -12.7804
   XY=             10.0360   XZ=              0.0000   YZ=              0.0000
 Octapole moment (field-independent basis, Debye-Ang**2):
  XXX=             -0.0000  YYY=              0.0000  ZZZ=              0.0000  XYY=              0.0000
  XXY=             -0.0000  XXZ=              0.0000  XZZ=              0.0000  YZZ=              0.0000
  YYZ=              0.0000  XYZ=              0.0000
 Hexadecapole moment (field-independent basis, Debye-Ang**3):
 XXXX=          -1165.3590 YYYY=          -6588.3223 ZZZZ=           -114.4821 XXXY=             -8.5903
 XXXZ=              0.0000 YYYX=            -62.1361 YYYZ=              0.0000 ZZZX=              0.0000
 ZZZY=              0.0000 XXYY=          -1309.8594 XXZZ=           -223.5824 YYZZ=          -1447.4752
 XXYZ=              0.0000 YYXZ=              0.0000 ZZXY=            -48.0239
 N-N= 1.382777084871D+03 E-N=-4.800678781515D+03  KE= 8.673253936374D+02
 Symmetry AG   KE= 4.210795091246D+02
 Symmetry BG   KE= 1.309940239023D+01
 Symmetry AU   KE= 1.594408925206D+01
 Symmetry BU   KE= 4.172023928706D+02
 1\1\GINC-192\SP\RPBE1PBE TD-FC\6-31G(d)\C16H10N2O2\ROOT\14-Aug-2017\0\
 \# PBE1PBE/6-31G* TD(nstates=20)\\[No Title]\\0,1\C,0,-0.353538,5.3062
 33,0.\C,0,1.040155,5.154988,0.\C,0,1.650679,3.904003,0.\C,0,0.821817,2
 .78544,0.\C,0,-0.582136,2.925858,0.\C,0,-1.174066,4.185385,0.\N,0,1.15
 943,1.446419,0.\C,0,0.022199,0.678223,0.\C,0,-1.15943,1.579913,0.\O,0,
 -2.328846,1.205464,0.\C,0,-0.022199,-0.678223,0.\C,0,1.15943,-1.579913
 ,0.\C,0,0.582136,-2.925858,0.\C,0,-0.821817,-2.78544,0.\N,0,-1.15943,-
 1.446419,0.\O,0,2.328846,-1.205464,0.\C,0,1.174066,-4.185385,0.\C,0,0.
 353538,-5.306233,0.\C,0,-1.040155,-5.154988,0.\C,0,-1.650679,-3.904003
 ,0.\H,0,-0.78645,6.301753,0.\H,0,1.668639,6.041735,0.\H,0,2.732436,3.8
 07686,0.\H,0,-2.256986,4.27199,0.\H,0,2.08266,1.033816,0.\H,0,-2.08266
 ,-1.033816,0.\H,0,2.256986,-4.27199,0.\H,0,0.78645,-6.301753,0.\H,0,-1
 .668639,-6.041735,0.\H,0,-2.732436,-3.807686,0.\\Version=ES64L-G16RevA
 .03\State=1-AG\HF=-874.7120807\RMSD=4.126e-09\PG=C02H [SGH(C16H10N2O2)
 ]\\@


 THE DIFFICULTY IN SCIENCE IS OFTEN NOT SO MUCH HOW
 TO MAKE A DISCOVERY BUT RATHER TO KNOW ONE HAS MADE IT.

                                                   -- J. D. BERNAL
 Job cpu time:       0 days  0 hours 25 minutes 47.0 seconds.
 Elapsed time:       0 days  0 hours  0 minutes 43.3 seconds.
 File lengths (MBytes):  RWF=   1206 Int=      0 D2E=      0 Chk=     77 Scr=      1
 Normal termination of Gaussian 16 at Mon Aug 14 18:12:24 2017.
