 Entering Gaussian System, Link 0=g16
 Initial command:
 /sob/g16/l1.exe "/sob2/gauscr/Gau-40535.inp" -scrdir="/sob2/gauscr/"
 Default is to use a total of  36 processors:
                               36 via shared-memory
                                1 via Linda
 Entering Link 1 = /sob/g16/l1.exe PID=     40536.
  
 Copyright (c) 1988,1990,1992,1993,1995,1998,2003,2009,2016,
            Gaussian, Inc.  All Rights Reserved.
  
 This is part of the Gaussian(R) 16 program.  It is based on
 the Gaussian(R) 09 system (copyright 2009, Gaussian, Inc.),
 the Gaussian(R) 03 system (copyright 2003, Gaussian, Inc.),
 the Gaussian(R) 98 system (copyright 1998, Gaussian, Inc.),
 the Gaussian(R) 94 system (copyright 1995, Gaussian, Inc.),
 the Gaussian 92(TM) system (copyright 1992, Gaussian, Inc.),
 the Gaussian 90(TM) system (copyright 1990, Gaussian, Inc.),
 the Gaussian 88(TM) system (copyright 1988, Gaussian, Inc.),
 the Gaussian 86(TM) system (copyright 1986, Carnegie Mellon
 University), and the Gaussian 82(TM) system (copyright 1983,
 Carnegie Mellon University). Gaussian is a federally registered
 trademark of Gaussian, Inc.
  
 This software contains proprietary and confidential information,
 including trade secrets, belonging to Gaussian, Inc.
  
 This software is provided under written license and may be
 used, copied, transmitted, or stored only in accord with that
 written license.
  
 The following legend is applicable only to US Government
 contracts under FAR:
  
                    RESTRICTED RIGHTS LEGEND
  
 Use, reproduction and disclosure by the US Government is
 subject to restrictions as set forth in subparagraphs (a)
 and (c) of the Commercial Computer Software - Restricted
 Rights clause in FAR 52.227-19.
  
 Gaussian, Inc.
 340 Quinnipiac St., Bldg. 40, Wallingford CT 06492
  
  
 ---------------------------------------------------------------
 Warning -- This program may not be used in any manner that
 competes with the business of Gaussian, Inc. or will provide
 assistance to any competitor of Gaussian, Inc.  The licensee
 of this program is prohibited from giving any competitor of
 Gaussian, Inc. access to this program.  By using this program,
 the user acknowledges that Gaussian, Inc. is engaged in the
 business of creating and licensing software in the field of
 computational chemistry and represents and warrants to the
 licensee that it is not a competitor of Gaussian, Inc. and that
 it will not use this program in any manner prohibited above.
 ---------------------------------------------------------------
  

 Cite this work as:
 Gaussian 16, Revision A.03,
 M. J. Frisch, G. W. Trucks, H. B. Schlegel, G. E. Scuseria, 
 M. A. Robb, J. R. Cheeseman, G. Scalmani, V. Barone, 
 G. A. Petersson, H. Nakatsuji, X. Li, M. Caricato, A. V. Marenich, 
 J. Bloino, B. G. Janesko, R. Gomperts, B. Mennucci, H. P. Hratchian, 
 J. V. Ortiz, A. F. Izmaylov, J. L. Sonnenberg, D. Williams-Young, 
 F. Ding, F. Lipparini, F. Egidi, J. Goings, B. Peng, A. Petrone, 
 T. Henderson, D. Ranasinghe, V. G. Zakrzewski, J. Gao, N. Rega, 
 G. Zheng, W. Liang, M. Hada, M. Ehara, K. Toyota, R. Fukuda, 
 J. Hasegawa, M. Ishida, T. Nakajima, Y. Honda, O. Kitao, H. Nakai, 
 T. Vreven, K. Throssell, J. A. Montgomery, Jr., J. E. Peralta, 
 F. Ogliaro, M. J. Bearpark, J. J. Heyd, E. N. Brothers, K. N. Kudin, 
 V. N. Staroverov, T. A. Keith, R. Kobayashi, J. Normand, 
 K. Raghavachari, A. P. Rendell, J. C. Burant, S. S. Iyengar, 
 J. Tomasi, M. Cossi, J. M. Millam, M. Klene, C. Adamo, R. Cammi, 
 J. W. Ochterski, R. L. Martin, K. Morokuma, O. Farkas, 
 J. B. Foresman, and D. J. Fox, Gaussian, Inc., Wallingford CT, 2016.
 
 ******************************************
 Gaussian 16:  ES64L-G16RevA.03 25-Dec-2016
                14-Aug-2017 
 ******************************************
 -----------------------------
 # PBE1PBE/TZVP TD(nstates=20)
 -----------------------------
 1/38=1,172=1/1;
 2/12=2,17=6,18=5,40=1/2;
 3/5=19,7=101,11=9,25=1,30=1,74=-13/1,2,3,8;
 4//1;
 5/5=2,38=5/2;
 8/6=1,10=1,108=20/1;
 9/41=20,42=1,70=2/14;
 6/7=2,8=2,9=2,10=2/1;
 99/5=1,9=1/99;
 ----------
 [No Title]
 ----------
 Symbolic Z-matrix:
 Charge =  0 Multiplicity = 1
 C                    -0.35354   5.30623   0. 
 C                     1.04015   5.15499   0. 
 C                     1.65068   3.904     0. 
 C                     0.82182   2.78544   0. 
 C                    -0.58214   2.92586   0. 
 C                    -1.17407   4.18539   0. 
 N                     1.15943   1.44642   0. 
 C                     0.0222    0.67822   0. 
 C                    -1.15943   1.57991   0. 
 O                    -2.32885   1.20546   0. 
 C                    -0.0222   -0.67822   0. 
 C                     1.15943  -1.57991   0. 
 C                     0.58214  -2.92586   0. 
 C                    -0.82182  -2.78544   0. 
 N                    -1.15943  -1.44642   0. 
 O                     2.32885  -1.20546   0. 
 C                     1.17407  -4.18539   0. 
 C                     0.35354  -5.30623   0. 
 C                    -1.04015  -5.15499   0. 
 C                    -1.65068  -3.904     0. 
 H                    -0.78645   6.30175   0. 
 H                     1.66864   6.04174   0. 
 H                     2.73244   3.80769   0. 
 H                    -2.25699   4.27199   0. 
 H                     2.08266   1.03382   0. 
 H                    -2.08266  -1.03382   0. 
 H                     2.25699  -4.27199   0. 
 H                     0.78645  -6.30175   0. 
 H                    -1.66864  -6.04174   0. 
 H                    -2.73244  -3.80769   0. 
 
                          Input orientation:                          
 ---------------------------------------------------------------------
 Center     Atomic      Atomic             Coordinates (Angstroms)
 Number     Number       Type             X           Y           Z
 ---------------------------------------------------------------------
      1          6           0       -0.353538    5.306233    0.000000
      2          6           0        1.040155    5.154988    0.000000
      3          6           0        1.650679    3.904003    0.000000
      4          6           0        0.821817    2.785440    0.000000
      5          6           0       -0.582136    2.925858    0.000000
      6          6           0       -1.174066    4.185385    0.000000
      7          7           0        1.159430    1.446419    0.000000
      8          6           0        0.022199    0.678223    0.000000
      9          6           0       -1.159430    1.579913    0.000000
     10          8           0       -2.328846    1.205464    0.000000
     11          6           0       -0.022199   -0.678223    0.000000
     12          6           0        1.159430   -1.579913    0.000000
     13          6           0        0.582136   -2.925858    0.000000
     14          6           0       -0.821817   -2.785440    0.000000
     15          7           0       -1.159430   -1.446419    0.000000
     16          8           0        2.328846   -1.205464    0.000000
     17          6           0        1.174066   -4.185385    0.000000
     18          6           0        0.353538   -5.306233    0.000000
     19          6           0       -1.040155   -5.154988    0.000000
     20          6           0       -1.650679   -3.904003    0.000000
     21          1           0       -0.786450    6.301753    0.000000
     22          1           0        1.668639    6.041735    0.000000
     23          1           0        2.732436    3.807686    0.000000
     24          1           0       -2.256986    4.271990    0.000000
     25          1           0        2.082660    1.033816    0.000000
     26          1           0       -2.082660   -1.033816    0.000000
     27          1           0        2.256986   -4.271990    0.000000
     28          1           0        0.786450   -6.301753    0.000000
     29          1           0       -1.668639   -6.041735    0.000000
     30          1           0       -2.732436   -3.807686    0.000000
 ---------------------------------------------------------------------
                    Distance matrix (angstroms):
                    1          2          3          4          5
     1  C    0.000000
     2  C    1.401876   0.000000
     3  C    2.446045   1.392014   0.000000
     4  C    2.781341   2.379586   1.392191   0.000000
     5  C    2.391326   2.756964   2.437669   1.410958   0.000000
     6  C    1.389088   2.417210   2.838725   2.437908   1.391686
     7  N    4.145749   3.710487   2.506201   1.380927   2.285124
     8  C    4.643238   4.591041   3.613531   2.253831   2.327463
     9  C    3.812469   4.197539   3.646657   2.319188   1.464526
    10  O    4.551719   5.191234   4.808194   3.524628   2.451683
    11  C    5.993622   5.929161   4.878044   3.565014   3.647318
    12  C    7.050396   6.735957   5.505875   4.378389   4.830634
    13  C    8.285096   8.093816   6.912943   5.716325   5.966415
    14  C    8.105212   8.155816   7.131752   5.808290   5.716325
    15  N    6.800571   6.958214   6.043486   4.672683   4.410224
    16  O    7.042541   6.489690   5.154276   4.265964   5.053874
    17  C    9.613760   9.341333   8.103416   6.979719   7.324891
    18  C   10.635995  10.483730   9.301130   8.105212   8.285096
    19  C   10.483730  10.517761   9.450180   8.155816   8.093816
    20  C    9.301130   9.450180   8.477259   7.131752   6.912943
    21  H    1.085575   2.156747   3.418889   3.866650   3.382072
    22  H    2.151781   1.086882   2.137807   3.364605   3.843784
    23  H    3.430580   2.163108   1.086036   2.166899   3.429870
    24  H    2.166281   3.413330   3.924954   3.418897   2.148766
    25  H    4.918192   4.250985   2.902513   2.158220   3.268174
    26  H    6.571612   6.932046   6.190305   4.798198   4.234453
    27  H    9.927597   9.505188   8.198443   7.201877   7.737547
    28  H   11.663829  11.459550  10.242282   9.087262   9.328549
    29  H   11.423917  11.519730  10.485017   9.171771   9.033173
    30  H    9.419271   9.724298   8.870279   7.490128   7.068550
                    6          7          8          9         10
     6  C    0.000000
     7  N    3.598213   0.000000
     8  C    3.705568   1.372377   0.000000
     9  C    2.605513   2.322699   1.486369   0.000000
    10  O    3.195848   3.496588   2.409439   1.227903   0.000000
    11  C    4.998148   2.431121   1.357172   2.528334   2.978069
    12  C    6.219635   3.026332   2.528334   3.919389   4.463899
    13  C    7.324891   4.410224   3.647318   4.830634   5.053874
    14  C    6.979719   4.672683   3.565014   4.378389   4.265964
    15  N    5.631823   3.707509   2.431121   3.026332   2.898278
    16  O    6.428969   2.898278   2.978069   4.463899   5.244680
    17  C    8.693878   5.631823   4.998148   6.219635   6.428969
    18  C    9.613760   6.800571   5.993622   7.050396   7.042541
    19  C    9.341333   6.958214   5.929161   6.735957   6.489690
    20  C    8.103416   6.043486   4.878044   5.505875   5.154276
    21  H    2.151571   5.230747   5.681373   4.736548   5.324580
    22  H    3.395145   4.623443   5.610528   5.282597   6.274504
    23  H    3.924718   2.837240   4.139918   4.484372   5.691057
    24  H    1.086378   4.433481   4.255566   2.907216   3.067368
    25  H    4.531959   1.011234   2.090920   3.287761   4.414844
    26  H    5.297698   4.081999   2.713210   2.771991   2.252772
    27  H    9.126846   5.822785   5.431287   6.776184   7.143694
    28  H   10.668818   7.757144   7.021691   8.118319   8.127938
    29  H   10.239072   8.004400   6.929413   7.638639   7.277209
    30  H    8.143568   6.538520   5.264161   5.612537   5.029370
                   11         12         13         14         15
    11  C    0.000000
    12  C    1.486369   0.000000
    13  C    2.327463   1.464526   0.000000
    14  C    2.253831   2.319188   1.410958   0.000000
    15  N    1.372377   2.322699   2.285124   1.380927   0.000000
    16  O    2.409439   1.227903   2.451683   3.524628   3.496588
    17  C    3.705568   2.605513   1.391686   2.437908   3.598213
    18  C    4.643238   3.812469   2.391326   2.781341   4.145749
    19  C    4.591041   4.197539   2.756964   2.379586   3.710487
    20  C    3.613531   3.646657   2.437669   1.392191   2.506201
    21  H    7.021691   8.118319   9.328549   9.087262   7.757144
    22  H    6.929413   7.638639   9.033173   9.171771   8.004400
    23  H    5.264161   5.612537   7.068550   7.490128   6.538520
    24  H    5.431287   6.776184   7.737547   7.201877   5.822785
    25  H    2.713210   2.771991   4.234453   4.798198   4.081999
    26  H    2.090920   3.287761   3.268174   2.158220   1.011234
    27  H    4.255566   2.907216   2.148766   3.418897   4.433481
    28  H    5.681373   4.736548   3.382072   3.866650   5.230747
    29  H    5.610528   5.282597   3.843784   3.364605   4.623443
    30  H    4.139918   4.484372   3.429870   2.166899   2.837240
                   16         17         18         19         20
    16  O    0.000000
    17  C    3.195848   0.000000
    18  C    4.551719   1.389088   0.000000
    19  C    5.191234   2.417210   1.401876   0.000000
    20  C    4.808194   2.838725   2.446045   1.392014   0.000000
    21  H    8.127938  10.668818  11.663829  11.459550  10.242282
    22  H    7.277209  10.239072  11.423917  11.519730  10.485017
    23  H    5.029370   8.143568   9.419271   9.724298   8.870279
    24  H    7.143694   9.126846   9.927597   9.505188   8.198443
    25  H    2.252772   5.297698   6.571612   6.932046   6.190305
    26  H    4.414844   4.531959   4.918192   4.250985   2.902513
    27  H    3.067368   1.086378   2.166281   3.413330   3.924954
    28  H    5.324580   2.151571   1.085575   2.156747   3.418889
    29  H    6.274504   3.395145   2.151781   1.086882   2.137807
    30  H    5.691057   3.924718   3.430580   2.163108   1.086036
                   21         22         23         24         25
    21  H    0.000000
    22  H    2.468820   0.000000
    23  H    4.313111   2.474397   0.000000
    24  H    2.506474   4.306104   5.010979   0.000000
    25  H    5.998579   5.025004   2.848958   5.414637   0.000000
    26  H    7.449210   8.008475   6.828271   5.308669   4.650268
    27  H   11.003024  10.330493   8.093653   9.663102   5.308669
    28  H   12.701275  12.374973  10.295029  11.003024   7.449210
    29  H   12.374973  12.535855  10.787982  10.330493   8.008475
    30  H   10.295029  10.787982   9.373298   8.093653   6.828271
                   26         27         28         29         30
    26  H    0.000000
    27  H    5.414637   0.000000
    28  H    5.998579   2.506474   0.000000
    29  H    5.025004   4.306104   2.468820   0.000000
    30  H    2.848958   5.010979   4.313111   2.474397   0.000000
 Stoichiometry    C16H10N2O2
 Framework group  C2H[SGH(C16H10N2O2)]
 Deg. of freedom    29
 Full point group                 C2H     NOp   4
 Largest Abelian subgroup         C2H     NOp   4
 Largest concise Abelian subgroup C2      NOp   2
                         Standard orientation:                         
 ---------------------------------------------------------------------
 Center     Atomic      Atomic             Coordinates (Angstroms)
 Number     Number       Type             X           Y           Z
 ---------------------------------------------------------------------
      1          6           0       -0.353538    5.306233    0.000000
      2          6           0        1.040155    5.154988    0.000000
      3          6           0        1.650679    3.904003    0.000000
      4          6           0        0.821817    2.785440    0.000000
      5          6           0       -0.582136    2.925858    0.000000
      6          6           0       -1.174066    4.185385    0.000000
      7          7           0        1.159430    1.446419    0.000000
      8          6           0        0.022199    0.678223    0.000000
      9          6           0       -1.159430    1.579913    0.000000
     10          8           0       -2.328846    1.205464    0.000000
     11          6           0       -0.022199   -0.678223    0.000000
     12          6           0        1.159430   -1.579913    0.000000
     13          6           0        0.582136   -2.925858    0.000000
     14          6           0       -0.821817   -2.785440    0.000000
     15          7           0       -1.159430   -1.446419    0.000000
     16          8           0        2.328846   -1.205464    0.000000
     17          6           0        1.174066   -4.185385    0.000000
     18          6           0        0.353538   -5.306233    0.000000
     19          6           0       -1.040155   -5.154988    0.000000
     20          6           0       -1.650679   -3.904003    0.000000
     21          1           0       -0.786450    6.301753    0.000000
     22          1           0        1.668639    6.041735    0.000000
     23          1           0        2.732436    3.807686    0.000000
     24          1           0       -2.256986    4.271990    0.000000
     25          1           0        2.082660    1.033816    0.000000
     26          1           0       -2.082660   -1.033816    0.000000
     27          1           0        2.256986   -4.271990    0.000000
     28          1           0        0.786450   -6.301753    0.000000
     29          1           0       -1.668639   -6.041735    0.000000
     30          1           0       -2.732436   -3.807686    0.000000
 ---------------------------------------------------------------------
 Rotational constants (GHZ):           1.1632799           0.1748182           0.1519788
 Standard basis: TZVP (5D, 7F)
 There are   175 symmetry adapted cartesian basis functions of AG  symmetry.
 There are    55 symmetry adapted cartesian basis functions of BG  symmetry.
 There are    55 symmetry adapted cartesian basis functions of AU  symmetry.
 There are   175 symmetry adapted cartesian basis functions of BU  symmetry.
 There are   165 symmetry adapted basis functions of AG  symmetry.
 There are    55 symmetry adapted basis functions of BG  symmetry.
 There are    55 symmetry adapted basis functions of AU  symmetry.
 There are   165 symmetry adapted basis functions of BU  symmetry.
   440 basis functions,   780 primitive gaussians,   460 cartesian basis functions
    68 alpha electrons       68 beta electrons
       nuclear repulsion energy      1382.7770848713 Hartrees.
 NAtoms=   30 NActive=   30 NUniq=   15 SFac= 4.00D+00 NAtFMM=   60 NAOKFM=F Big=F
 Integral buffers will be    131072 words long.
 Regular integral format.
 Two-electron integral symmetry is turned on.
 One-electron integrals computed using PRISM.
 NBasis=   440 RedAO= T EigKep=  7.76D-06  NBF=   165    55    55   165
 NBsUse=   440 1.00D-06 EigRej= -1.00D+00 NBFU=   165    55    55   165
 ExpMin= 9.52D-02 ExpMax= 2.70D+04 ExpMxC= 9.22D+02 IAcc=3 IRadAn=         5 AccDes= 0.00D+00
 Harris functional with IExCor= 1009 and IRadAn=       5 diagonalized for initial guess.
 HarFok:  IExCor= 1009 AccDes= 0.00D+00 IRadAn=         5 IDoV= 1 UseB2=F ITyADJ=14
 ICtDFT=  3500011 ScaDFX=  1.000000  1.000000  1.000000  1.000000
 FoFCou: FMM=F IPFlag=           0 FMFlag=      100000 FMFlg1=           0
         NFxFlg=           0 DoJE=T BraDBF=F KetDBF=T FulRan=T
         wScrn=  0.000000 ICntrl=       500 IOpCl=  0 I1Cent=   200000004 NGrid=           0
         NMat0=    1 NMatS0=      1 NMatT0=    0 NMatD0=    1 NMtDS0=    0 NMtDT0=    0
 Petite list used in FoFCou.
 Initial guess orbital symmetries:
       Occupied  (BU) (AG) (BU) (AG) (BU) (AG) (BU) (AG) (AG) (BU)
                 (AG) (BU) (BU) (AG) (BU) (AG) (AG) (BU) (AG) (BU)
                 (AG) (BU) (AG) (BU) (AG) (BU) (AG) (BU) (AG) (BU)
                 (AG) (BU) (AG) (BU) (AG) (BU) (AG) (BU) (AG) (BU)
                 (BU) (AG) (BU) (AG) (AG) (BU) (AG) (BU) (BU) (AG)
                 (AU) (AG) (BG) (BU) (AG) (AG) (BU) (AU) (BG) (AU)
                 (BG) (BU) (AU) (BG) (AU) (AG) (BG) (AU)
       Virtual   (BG) (AU) (BG) (AU) (BG) (AU) (BU) (AG) (BU) (BG)
                 (AG) (BU) (AG) (AU) (BG) (BU) (AG) (BU) (AG) (BU)
                 (AG) (BU) (AG) (AG) (BU) (AG) (BU) (AG) (BU) (BU)
                 (AU) (AG) (BG) (AG) (BU) (AG) (BU) (BU) (AG) (AU)
                 (BU) (BG) (AG) (BU) (AU) (AG) (BG) (BU) (AG) (BG)
                 (AU) (AG) (BU) (BU) (BU) (AG) (AU) (BU) (BG) (AG)
                 (AU) (BU) (BU) (BG) (AG) (BU) (AG) (AG) (AG) (BU)
                 (AU) (AG) (AG) (BU) (BU) (BG) (AG) (BU) (AG) (BG)
                 (AU) (AG) (BU) (AG) (BU) (BU) (BU) (AG) (BG) (AG)
                 (BU) (AG) (BU) (BU) (AG) (AU) (AG) (AG) (AG) (BU)
                 (AU) (BU) (BG) (BU) (AG) (BU) (AG) (BU) (AG) (BU)
                 (BU) (AG) (AG) (AG) (BU) (BU) (AG) (BU) (AG) (BU)
                 (AG) (BU) (BU) (AG) (AG) (BU) (BU) (AG) (AG) (BU)
                 (BU) (AG) (BG) (AU) (AU) (BU) (AG) (BG) (AG) (BU)
                 (AU) (BG) (AU) (BG) (AG) (BU) (AG) (AU) (BU) (AG)
                 (BG) (AU) (BG) (AU) (BU) (BG) (AG) (BG) (AU) (BU)
                 (AU) (BG) (BU) (AU) (BG) (AU) (AG) (BG) (AU) (BG)
                 (BU) (AU) (AG) (AU) (AG) (BG) (BU) (AG) (BU) (BU)
                 (AG) (AG) (AU) (BG) (AG) (BU) (BG) (BU) (AU) (AG)
                 (BU) (AG) (BU) (AG) (BU) (BU) (AG) (AG) (BU) (AG)
                 (AG) (BU) (BG) (AG) (BU) (AU) (AG) (BU) (BU) (AG)
                 (BU) (BU) (AG) (AG) (BU) (BG) (AU) (BU) (BG) (AU)
                 (AG) (BU) (AG) (BG) (AU) (BU) (BG) (AU) (AG) (BU)
                 (AG) (BG) (AU) (BG) (BU) (AG) (BU) (BU) (AG) (AG)
                 (BU) (AU) (BG) (AU) (AG) (BU) (AG) (BG) (AG) (BU)
                 (AG) (BG) (BU) (AU) (AU) (BU) (AG) (BG) (BU) (AG)
                 (AG) (BG) (AU) (BG) (AG) (AU) (BU) (AG) (BU) (BU)
                 (BU) (AG) (BG) (AG) (AU) (BU) (BU) (AG) (AU) (AG)
                 (BG) (BU) (AG) (AU) (BU) (AG) (AU) (BG) (BG) (BU)
                 (AG) (BG) (BU) (AG) (BU) (AU) (BU) (AG) (AU) (AG)
                 (BU) (AG) (BU) (BG) (BU) (AG) (AG) (AG) (BU) (AG)
                 (BU) (AG) (BU) (AG) (BU) (BU) (AG) (AG) (BU) (BU)
                 (AG) (AG) (BU) (BU) (AG) (AU) (BU) (AG) (BG) (AG)
                 (BU) (BU) (AG) (AG) (BU) (BU) (AG) (BU) (BU) (AG)
                 (AG) (BU) (BU) (AG) (BU) (AG) (BU) (AG) (BU) (AG)
                 (AG) (BU) (AG) (BU) (AG) (BU) (BU) (AG) (AG) (BU)
                 (AG) (BU) (AG) (AG) (BU) (BU) (AG) (BU) (AG) (BU)
                 (AG) (BU)
 The electronic state of the initial guess is 1-AG.
 Requested convergence on RMS density matrix=1.00D-08 within 128 cycles.
 Requested convergence on MAX density matrix=1.00D-06.
 Requested convergence on             energy=1.00D-06.
 No special actions if energy rises.
 Integral accuracy reduced to 1.0D-05 until final iterations.
 Problem detected with inexpensive integrals.
 Switching to full accuracy and repeating last cycle.
 SCF Done:  E(RPBE1PBE) =  -874.977194315     A.U. after   14 cycles
            NFock= 14  Conv=0.84D-08     -V/T= 2.0045
 DoSCS=F DFT=T ScalE2(SS,OS)=  1.000000  1.000000
 ExpMin= 9.52D-02 ExpMax= 2.70D+04 ExpMxC= 9.22D+02 IAcc=3 IRadAn=         5 AccDes= 0.00D+00
 HarFok:  IExCor=  205 AccDes= 0.00D+00 IRadAn=         5 IDoV=-2 UseB2=F ITyADJ=14
 ICtDFT= 12500011 ScaDFX=  1.000000  1.000000  1.000000  1.000000
 Range of M.O.s used for correlation:    21   440
 NBasis=   440 NAE=    68 NBE=    68 NFC=    20 NFV=     0
 NROrb=    420 NOA=    48 NOB=    48 NVA=   372 NVB=   372

 **** Warning!!: The largest alpha MO coefficient is  0.85941840D+02

 Orbital symmetries:
       Occupied  (BU) (AG) (BU) (AG) (AG) (BU) (BU) (AG) (AG) (BU)
                 (BU) (AG) (BU) (AG) (AG) (BU) (BU) (AG) (BU) (AG)
                 (AG) (BU) (AG) (BU) (AG) (BU) (AG) (BU) (AG) (BU)
                 (AG) (BU) (AG) (BU) (AG) (BU) (BU) (AG) (AG) (BU)
                 (BU) (AG) (AG) (AU) (AG) (BU) (BU) (BU) (AG) (BG)
                 (BU) (AG) (AG) (BG) (BU) (AU) (AG) (AU) (AG) (BU)
                 (BG) (BU) (AU) (BG) (AU) (AG) (BG) (AU)
       Virtual   (BG) (AU) (BG) (AU) (BG) (AU) (AG) (BU) (BU) (AG)
                 (AG) (BU) (BU) (AG) (BU) (AG) (BG) (AG) (BU) (BU)
                 (AG) (BG) (AU) (AG) (BU) (BU) (AU) (BU) (AG) (BG)
                 (BU) (AG) (AG) (BU) (AU) (AG) (BG) (BU) (AU) (AG)
                 (AG) (AG) (BG) (BU) (BU) (BU) (BG) (AU) (AG) (BU)
                 (AG) (AU) (BU) (BU) (BG) (AG) (AU) (BU) (AG) (BG)
                 (AG) (BU) (BU) (AG) (BU) (AG) (AU) (BU) (AG) (BU)
                 (AG) (BU) (BG) (AG) (AU) (AG) (BG) (BU) (AG) (BU)
                 (AG) (AG) (BU) (BU) (BG) (AG) (BU) (BU) (AG) (AG)
                 (BU) (AU) (AG) (BU) (AG) (BU) (AG) (AG) (AU) (BU)
                 (BG) (BU) (AG) (BU) (AG) (AG) (BU) (BU) (AG) (BU)
                 (AG) (AG) (BU) (AG) (BU) (BU) (AG) (BU) (AG) (BU)
                 (BU) (AG) (AG) (BU) (AG) (BU) (BU) (AG) (AG) (BU)
                 (BU) (AG) (AU) (BG) (AG) (AU) (BU) (AG) (BG) (AU)
                 (BG) (BU) (BG) (AU) (AG) (BU) (AU) (BG) (AG) (BU)
                 (AG) (AU) (BG) (AU) (BU) (BG) (AG) (AU) (BU) (BG)
                 (AG) (BU) (AU) (AU) (BG) (BU) (AU) (BG) (BG) (AU)
                 (BG) (AU) (AG) (AG) (AG) (BG) (AU) (BU) (BU) (AU)
                 (AG) (AG) (BU) (BG) (AG) (BU) (BG) (AU) (BU) (BU)
                 (AG) (AG) (BU) (AG) (BU) (AG) (BU) (BU) (AG) (BG)
                 (AG) (AG) (AU) (BU) (BU) (AG) (BU) (AG) (BU) (AG)
                 (BU) (AG) (BU) (AG) (BU) (BG) (AU) (BG) (BU) (AU)
                 (AG) (BU) (AG) (BG) (AU) (BU) (BG) (AU) (BG) (AG)
                 (BU) (AG) (AU) (BG) (AG) (BU) (BU) (BU) (AG) (AU)
                 (AG) (BU) (BG) (AU) (BG) (AG) (AG) (BU) (BU) (AG)
                 (BG) (AG) (AU) (BU) (AU) (AG) (BU) (BG) (AG) (BU)
                 (AG) (BG) (AU) (BG) (AU) (BU) (AG) (AG) (BU) (BU)
                 (AG) (BG) (BU) (AU) (BU) (AG) (BU) (AG) (AU) (AG)
                 (BU) (BG) (AG) (BU) (AG) (BG) (AU) (BU) (AU) (BG)
                 (BU) (AG) (AG) (BG) (AU) (BU) (BU) (AU) (AG) (AG)
                 (BU) (BG) (AG) (BU) (BU) (AG) (AG) (BU) (AG) (AG)
                 (BU) (AG) (BU) (AG) (BU) (BU) (AG) (AG) (BU) (BU)
                 (AG) (BU) (AG) (BU) (AG) (BU) (AU) (AG) (BG) (AG)
                 (BU) (BU) (AG) (BU) (AG) (BU) (AG) (BU) (BU) (AG)
                 (AG) (BU) (BU) (AG) (BU) (AG) (BU) (AG) (BU) (AG)
                 (AG) (BU) (AG) (BU) (AG) (BU) (AG) (BU) (AG) (BU)
                 (AG) (BU) (AG) (BU) (AG) (BU) (AG) (BU) (AG) (BU)
                 (AG) (BU)
    80 initial guesses have been made.
 Convergence on wavefunction:    0.001000000000000
 Iteration     1 Dimension    80 NMult     0 NNew     80
 CISAX will form    80 AO SS matrices at one time.
 New state      4 was old state      8
 New state      5 was old state      4
 New state      6 was old state      5
 New state      7 was old state      6
 New state      8 was old state      7
 New state     11 was old state     13
 New state     12 was old state     11
 New state     13 was old state     12
 New state     14 was old state     18
 New state     16 was old state     17
 New state     17 was old state     16
 New state     18 was old state     20
 New state     19 was old state     21
 New state     20 was old state     14
 Iteration     2 Dimension   120 NMult    80 NNew     40
 New state     16 was old state     20
 New state     18 was old state     16
 New state     19 was old state     18
 New state     20 was old state     19
 Iteration     3 Dimension   160 NMult   120 NNew     40
 Iteration     4 Dimension   200 NMult   160 NNew     40
 Iteration     5 Dimension   216 NMult   200 NNew     16
 ***********************************************************************
 Excited states from <AA,BB:AA,BB> singles matrix:
 ***********************************************************************
 
 Ground to excited state transition densities written to RWF  633
 Ground to excited state transition electric dipole moments (Au):
       state          X           Y           Z        Dip. S.      Osc.
         1        -0.6536      2.1559      0.0000      5.0751      0.2903
         2         0.0000     -0.0000     -0.0000      0.0000      0.0000
         3         0.0000     -0.0000      0.0000      0.0000      0.0000
         4         0.0000      0.0000     -0.0116      0.0001      0.0000
         5         0.0000      0.0000      0.0000      0.0000      0.0000
         6         0.3028      1.6509     -0.0000      2.8172      0.2745
         7        -0.0000      0.0000      0.0000      0.0000      0.0000
         8         0.0901     -0.8369      0.0000      0.7085      0.0738
         9         0.3901      1.7980     -0.0000      3.3851      0.3839
        10         0.7245      1.5480     -0.0000      2.9213      0.3418
        11        -0.0000     -0.0000     -0.0329      0.0011      0.0001
        12        -0.0000     -0.0000      0.0000      0.0000      0.0000
        13         0.1863      1.2056      0.0000      1.4882      0.1981
        14        -0.0000     -0.0000      0.0000      0.0000      0.0000
        15        -0.0000      0.0000     -0.0000      0.0000      0.0000
        16         0.0000     -0.0000     -0.0000      0.0000      0.0000
        17        -0.0903      0.8804     -0.0000      0.7833      0.1126
        18         0.0000      0.0000     -0.0000      0.0000      0.0000
        19         0.0000     -0.0000     -0.0000      0.0000      0.0000
        20         0.0000      0.0000     -0.0000      0.0000      0.0000
 Ground to excited state transition velocity dipole moments (Au):
       state          X           Y           Z        Dip. S.      Osc.
         1         0.0596     -0.1882     -0.0000      0.0390      0.3027
         2        -0.0000      0.0000      0.0000      0.0000      0.0000
         3         0.0000      0.0000     -0.0000      0.0000      0.0000
         4         0.0000     -0.0000      0.0027      0.0000      0.0000
         5        -0.0000     -0.0000     -0.0000      0.0000      0.0000
         6        -0.0352     -0.2284      0.0000      0.0534      0.2436
         7         0.0000     -0.0000     -0.0000      0.0000      0.0000
         8        -0.0067      0.1231     -0.0000      0.0152      0.0649
         9        -0.0661     -0.3109      0.0000      0.1011      0.3961
        10        -0.1311     -0.2600     -0.0000      0.0848      0.3221
        11         0.0000      0.0000      0.0107      0.0001      0.0004
        12        -0.0000      0.0000     -0.0000      0.0000      0.0000
        13        -0.0380     -0.2259     -0.0000      0.0525      0.1752
        14         0.0000      0.0000      0.0000      0.0000      0.0000
        15         0.0000     -0.0000      0.0000      0.0000      0.0000
        16        -0.0000      0.0000      0.0000      0.0000      0.0000
        17         0.0253     -0.1848      0.0000      0.0348      0.1077
        18        -0.0000     -0.0000     -0.0000      0.0000      0.0000
        19        -0.0000      0.0000     -0.0000      0.0000      0.0000
        20        -0.0000     -0.0000     -0.0000      0.0000      0.0000
 Ground to excited state transition magnetic dipole moments (Au):
       state          X           Y           Z
         1         0.0000      0.0000      0.0000
         2        -0.0000     -0.0000     -1.6161
         3        -0.8050     -0.2662     -0.0000
         4        -0.0000      0.0000      0.0000
         5        -0.0000      0.0000      1.2545
         6        -0.0000      0.0000      0.0000
         7         0.0000     -0.0000     -0.5777
         8        -0.0000     -0.0000     -0.0000
         9        -0.0000      0.0000      0.0000
        10        -0.0000     -0.0000     -0.0000
        11        -0.0000      0.0000      0.0000
        12        -0.0000      0.0000      0.5102
        13        -0.0000     -0.0000     -0.0000
        14        -0.4647     -0.3189      0.0000
        15        -0.0000     -0.0000      0.1592
        16         0.0000      0.0000     -0.1397
        17         0.0000      0.0000     -0.0000
        18        -0.0000      0.0000      0.5707
        19        -0.0000      0.0000     -0.1030
        20        -0.1855     -0.0348     -0.0000
 Ground to excited state transition velocity quadrupole moments (Au):
       state          XX          YY          ZZ          XY          XZ          YZ
         1         0.0000     -0.0000      0.0000     -0.0000     -0.0000      0.0000
         2        -0.0978      0.1581      0.0061      0.3548      0.0000      0.0000
         3        -0.0000      0.0000     -0.0000      0.0000      0.0185     -0.0358
         4         0.0000     -0.0000      0.0000     -0.0000     -0.0000     -0.0000
         5         0.0620     -0.0472      0.0019     -0.6039     -0.0000     -0.0000
         6         0.0000     -0.0000      0.0000     -0.0000     -0.0000     -0.0000
         7        -0.2094      1.6327      0.0104      0.2628      0.0000      0.0000
         8        -0.0000      0.0000      0.0000      0.0000      0.0000      0.0000
         9        -0.0000      0.0000      0.0000     -0.0000     -0.0000     -0.0000
        10        -0.0000     -0.0000      0.0000      0.0000     -0.0000      0.0000
        11        -0.0000      0.0000      0.0000     -0.0000      0.0000     -0.0000
        12        -0.0522      1.4789      0.0379     -0.0399     -0.0000     -0.0000
        13        -0.0000      0.0000      0.0000      0.0000      0.0000      0.0000
        14         0.0000      0.0000      0.0000     -0.0000      0.0316     -0.0748
        15        -0.1188     -1.3642     -0.0350     -0.4524     -0.0000     -0.0000
        16        -0.0183      3.5827      0.0243      0.3709      0.0000      0.0000
        17         0.0000      0.0000      0.0000      0.0000     -0.0000      0.0000
        18        -0.1669      1.9266      0.0110     -0.3666     -0.0000     -0.0000
        19         0.1026     -0.3049      0.0226     -0.4720     -0.0000     -0.0000
        20         0.0000     -0.0000     -0.0000      0.0000      0.0106      0.0564
 <0|del|b> * <b|rxdel|0> + <0|del|b> * <b|delr+rdel|0>
 Rotatory Strengths (R) in cgs (10**-40 erg-esu-cm/Gauss)
       state          XX          YY          ZZ    R(velocity)    E-M Angle
         1        -0.0000      0.0000      0.0000      0.0000       90.00
         2        -0.0000     -0.0000      0.0000     -0.0000       90.00
         3        -0.0000     -0.0000     -0.0000     -0.0000       90.00
         4         0.0000      0.0000      0.0000      0.0000       90.00
         5        -0.0000     -0.0000      0.0000     -0.0000       90.00
         6        -0.0000      0.0000      0.0000     -0.0000       90.00
         7         0.0000      0.0000     -0.0000      0.0000       90.00
         8        -0.0000     -0.0000      0.0000     -0.0000       90.00
         9        -0.0000      0.0000      0.0000      0.0000       90.00
        10         0.0000     -0.0000      0.0000      0.0000       90.00
        11         0.0000      0.0000      0.0000      0.0000       90.00
        12        -0.0000     -0.0000      0.0000     -0.0000       90.00
        13         0.0000     -0.0000      0.0000      0.0000       90.00
        14        -0.0000     -0.0000     -0.0000     -0.0000       90.00
        15        -0.0000      0.0000      0.0000      0.0000       90.00
        16         0.0000     -0.0000      0.0000     -0.0000       90.00
        17        -0.0000      0.0000     -0.0000     -0.0000       90.00
        18        -0.0000     -0.0000      0.0000     -0.0000       90.00
        19         0.0000     -0.0000      0.0000      0.0000       90.00
        20         0.0000      0.0000      0.0000      0.0000       90.00
 1/2[<0|r|b>*<b|rxdel|0> + (<0|rxdel|b>*<b|r|0>)*]
 Rotatory Strengths (R) in cgs (10**-40 erg-esu-cm/Gauss)
       state          XX          YY          ZZ     R(length)
         1         0.0000     -0.0000     -0.0000      0.0000
         2         0.0000     -0.0000     -0.0000     -0.0000
         3         0.0000     -0.0000      0.0000      0.0000
         4         0.0000     -0.0000      0.0000      0.0000
         5         0.0000     -0.0000     -0.0000     -0.0000
         6         0.0000     -0.0000      0.0000     -0.0000
         7         0.0000      0.0000      0.0000      0.0000
         8         0.0000     -0.0000      0.0000     -0.0000
         9         0.0000     -0.0000      0.0000      0.0000
        10         0.0000      0.0000     -0.0000      0.0000
        11        -0.0000      0.0000      0.0000      0.0000
        12        -0.0000      0.0000     -0.0000     -0.0000
        13         0.0000      0.0000      0.0000      0.0000
        14        -0.0000     -0.0000     -0.0000     -0.0000
        15        -0.0000      0.0000      0.0000      0.0000
        16        -0.0000      0.0000     -0.0000     -0.0000
        17         0.0000     -0.0000     -0.0000     -0.0000
        18         0.0000     -0.0000      0.0000      0.0000
        19         0.0000      0.0000     -0.0000     -0.0000
        20         0.0000      0.0000     -0.0000      0.0000
  1/2[<0|del|b>*<b|r|0> + (<0|r|b>*<b|del|0>)*] (Au)
       state          X           Y           Z        Dip. S.   Osc.(frdel)
         1        -0.0389     -0.4057     -0.0000      0.4446      0.2964
         2        -0.0000     -0.0000     -0.0000      0.0000      0.0000
         3         0.0000     -0.0000     -0.0000     -0.0000     -0.0000
         4         0.0000     -0.0000     -0.0000      0.0000      0.0000
         5        -0.0000     -0.0000     -0.0000      0.0000      0.0000
         6        -0.0107     -0.3770     -0.0000      0.3877      0.2584
         7        -0.0000     -0.0000     -0.0000      0.0000      0.0000
         8        -0.0006     -0.1030     -0.0000      0.1036      0.0691
         9        -0.0258     -0.5591     -0.0000      0.5849      0.3899
        10        -0.0950     -0.4025      0.0000      0.4975      0.3317
        11        -0.0000     -0.0000     -0.0004      0.0004      0.0002
        12         0.0000     -0.0000     -0.0000      0.0000      0.0000
        13        -0.0071     -0.2723     -0.0000      0.2794      0.1863
        14        -0.0000     -0.0000      0.0000      0.0000      0.0000
        15        -0.0000     -0.0000     -0.0000      0.0000      0.0000
        16        -0.0000     -0.0000     -0.0000      0.0000      0.0000
        17        -0.0023     -0.1627     -0.0000      0.1650      0.1100
        18        -0.0000     -0.0000      0.0000      0.0000      0.0000
        19        -0.0000     -0.0000      0.0000      0.0000      0.0000
        20        -0.0000     -0.0000      0.0000      0.0000      0.0000

 Excitation energies and oscillator strengths:
 
 Excited State   1:      Singlet-BU     2.3349 eV  530.99 nm  f=0.2903  <S**2>=0.000
      68 -> 69         0.70717
      68 <- 69        -0.10612
 This state for optimization and/or second-order correction.
 Total Energy, E(TD-HF/TD-DFT) =  -874.891386568    
 Copying the excited state density for this state as the 1-particle RhoCI density.
 
 Excited State   2:      Singlet-AG     2.8604 eV  433.44 nm  f=0.0000  <S**2>=0.000
      67 -> 69         0.70298
 
 Excited State   3:      Singlet-BG     2.9434 eV  421.23 nm  f=0.0000  <S**2>=0.000
      66 -> 69         0.69512
 
 Excited State   4:      Singlet-AU     3.4274 eV  361.74 nm  f=0.0000  <S**2>=0.000
      62 -> 69         0.68194
      66 -> 70         0.15518
 
 Excited State   5:      Singlet-AG     3.7148 eV  333.76 nm  f=0.0000  <S**2>=0.000
      64 -> 69         0.16120
      68 -> 70         0.68070
 
 Excited State   6:      Singlet-BU     3.9766 eV  311.78 nm  f=0.2745  <S**2>=0.000
      63 -> 69        -0.10100
      65 -> 69         0.67627
      68 -> 71        -0.14143
 
 Excited State   7:      Singlet-AG     4.1458 eV  299.06 nm  f=0.0000  <S**2>=0.000
      64 -> 69         0.67330
      68 -> 70        -0.17047
 
 Excited State   8:      Singlet-BU     4.2495 eV  291.76 nm  f=0.0738  <S**2>=0.000
      63 -> 69         0.67058
      67 -> 70        -0.16369
 
 Excited State   9:      Singlet-BU     4.6285 eV  267.87 nm  f=0.3839  <S**2>=0.000
      65 -> 69         0.13823
      68 -> 71         0.68531
 
 Excited State  10:      Singlet-BU     4.7760 eV  259.60 nm  f=0.3418  <S**2>=0.000
      63 -> 69         0.15409
      67 -> 70         0.64681
      68 -> 73        -0.16937
 
 Excited State  11:      Singlet-AU     5.0927 eV  243.45 nm  f=0.0001  <S**2>=0.000
      62 -> 69        -0.16196
      66 -> 70         0.68068
 
 Excited State  12:      Singlet-AG     5.1332 eV  241.53 nm  f=0.0000  <S**2>=0.000
      63 -> 70         0.10454
      65 -> 70        -0.19908
      67 -> 71         0.12533
      68 -> 72         0.65111
 
 Excited State  13:      Singlet-BU     5.4336 eV  228.18 nm  f=0.1981  <S**2>=0.000
      64 -> 70        -0.14558
      67 -> 70         0.16332
      68 -> 73         0.65789
 
 Excited State  14:      Singlet-BG     5.5855 eV  221.97 nm  f=0.0000  <S**2>=0.000
      62 -> 70         0.67157
      66 -> 71        -0.16847
 
 Excited State  15:      Singlet-AG     5.6962 eV  217.66 nm  f=0.0000  <S**2>=0.000
      63 -> 70         0.13222
      65 -> 70         0.30909
      65 -> 72         0.14066
      67 -> 71         0.57483
 
 Excited State  16:      Singlet-AG     5.8316 eV  212.61 nm  f=0.0000  <S**2>=0.000
      63 -> 70        -0.29528
      63 -> 72        -0.10286
      64 -> 71        -0.12383
      64 -> 73        -0.11122
      65 -> 70         0.47609
      65 -> 72        -0.11499
      67 -> 73         0.18069
      68 -> 72         0.23059
      68 -> 74        -0.15084
 
 Excited State  17:      Singlet-BU     5.8651 eV  211.39 nm  f=0.1126  <S**2>=0.000
      64 -> 70         0.62927
      67 -> 72         0.25310
 
 Excited State  18:      Singlet-AG     5.9876 eV  207.07 nm  f=0.0000  <S**2>=0.000
      61 -> 69        -0.15059
      63 -> 70         0.57487
      65 -> 70         0.22915
      67 -> 71        -0.21045
      67 -> 73         0.14536
      68 -> 74        -0.14478
 
 Excited State  19:      Singlet-AG     6.0543 eV  204.79 nm  f=0.0000  <S**2>=0.000
      61 -> 69         0.65713
      63 -> 70         0.11481
      64 -> 71         0.10904
      65 -> 72         0.10167
      67 -> 71        -0.13384
 
 Excited State  20:      Singlet-BG     6.1450 eV  201.76 nm  f=0.0000  <S**2>=0.000
      59 -> 69         0.11034
      62 -> 70         0.14885
      66 -> 71         0.66687
 SavETr:  write IOETrn=   770 NScale= 10 NData=  16 NLR=1 NState=   20 LETran=     370.

 **********************************************************************

            Population analysis using the SCF density.

 **********************************************************************

 Orbital symmetries:
       Occupied  (BU) (AG) (BU) (AG) (AG) (BU) (BU) (AG) (AG) (BU)
                 (BU) (AG) (BU) (AG) (AG) (BU) (BU) (AG) (BU) (AG)
                 (AG) (BU) (AG) (BU) (AG) (BU) (AG) (BU) (AG) (BU)
                 (AG) (BU) (AG) (BU) (AG) (BU) (BU) (AG) (AG) (BU)
                 (BU) (AG) (AG) (AU) (AG) (BU) (BU) (BU) (AG) (BG)
                 (BU) (AG) (AG) (BG) (BU) (AU) (AG) (AU) (AG) (BU)
                 (BG) (BU) (AU) (BG) (AU) (AG) (BG) (AU)
       Virtual   (BG) (AU) (BG) (AU) (BG) (AU) (AG) (BU) (BU) (AG)
                 (AG) (BU) (BU) (AG) (BU) (AG) (BG) (AG) (BU) (BU)
                 (AG) (BG) (AU) (AG) (BU) (BU) (AU) (BU) (AG) (BG)
                 (BU) (AG) (AG) (BU) (AU) (AG) (BG) (BU) (AU) (AG)
                 (AG) (AG) (BG) (BU) (BU) (BU) (BG) (AU) (AG) (BU)
                 (AG) (AU) (BU) (BU) (BG) (AG) (AU) (BU) (AG) (BG)
                 (AG) (BU) (BU) (AG) (BU) (AG) (AU) (BU) (AG) (BU)
                 (AG) (BU) (BG) (AG) (AU) (AG) (BG) (BU) (AG) (BU)
                 (AG) (AG) (BU) (BU) (BG) (AG) (BU) (BU) (AG) (AG)
                 (BU) (AU) (AG) (BU) (AG) (BU) (AG) (AG) (AU) (BU)
                 (BG) (BU) (AG) (BU) (AG) (AG) (BU) (BU) (AG) (BU)
                 (AG) (AG) (BU) (AG) (BU) (BU) (AG) (BU) (AG) (BU)
                 (BU) (AG) (AG) (BU) (AG) (BU) (BU) (AG) (AG) (BU)
                 (BU) (AG) (AU) (BG) (AG) (AU) (BU) (AG) (BG) (AU)
                 (BG) (BU) (BG) (AU) (AG) (BU) (AU) (BG) (AG) (BU)
                 (AG) (AU) (BG) (AU) (BU) (BG) (AG) (AU) (BU) (BG)
                 (AG) (BU) (AU) (AU) (BG) (BU) (AU) (BG) (BG) (AU)
                 (BG) (AU) (AG) (AG) (AG) (BG) (AU) (BU) (BU) (AU)
                 (AG) (AG) (BU) (BG) (AG) (BU) (BG) (AU) (BU) (BU)
                 (AG) (AG) (BU) (AG) (BU) (AG) (BU) (BU) (AG) (BG)
                 (AG) (AG) (AU) (BU) (BU) (AG) (BU) (AG) (BU) (AG)
                 (BU) (AG) (BU) (AG) (BU) (BG) (AU) (BG) (BU) (AU)
                 (AG) (BU) (AG) (BG) (AU) (BU) (BG) (AU) (BG) (AG)
                 (BU) (AG) (AU) (BG) (AG) (BU) (BU) (BU) (AG) (AU)
                 (AG) (BU) (BG) (AU) (BG) (AG) (AG) (BU) (BU) (AG)
                 (BG) (AG) (AU) (BU) (AU) (AG) (BU) (BG) (AG) (BU)
                 (AG) (BG) (AU) (BG) (AU) (BU) (AG) (AG) (BU) (BU)
                 (AG) (BG) (BU) (AU) (BU) (AG) (BU) (AG) (AU) (AG)
                 (BU) (BG) (AG) (BU) (AG) (BG) (AU) (BU) (AU) (BG)
                 (BU) (AG) (AG) (BG) (AU) (BU) (BU) (AU) (AG) (AG)
                 (BU) (BG) (AG) (BU) (BU) (AG) (AG) (BU) (AG) (AG)
                 (BU) (AG) (BU) (AG) (BU) (BU) (AG) (AG) (BU) (BU)
                 (AG) (BU) (AG) (BU) (AG) (BU) (AU) (AG) (BG) (AG)
                 (BU) (BU) (AG) (BU) (AG) (BU) (AG) (BU) (BU) (AG)
                 (AG) (BU) (BU) (AG) (BU) (AG) (BU) (AG) (BU) (AG)
                 (AG) (BU) (AG) (BU) (AG) (BU) (AG) (BU) (AG) (BU)
                 (AG) (BU) (AG) (BU) (AG) (BU) (AG) (BU) (AG) (BU)
                 (AG) (BU)
 The electronic state is 1-AG.
 Alpha  occ. eigenvalues --  -19.20262 -19.20262 -14.43875 -14.43875 -10.32072
 Alpha  occ. eigenvalues --  -10.32072 -10.29103 -10.29103 -10.28968 -10.28890
 Alpha  occ. eigenvalues --  -10.25056 -10.25056 -10.24926 -10.24925 -10.24562
 Alpha  occ. eigenvalues --  -10.24562 -10.24064 -10.24064 -10.23658 -10.23658
 Alpha  occ. eigenvalues --   -1.08144  -1.07554  -1.02910  -1.02282  -0.89726
 Alpha  occ. eigenvalues --   -0.89139  -0.82200  -0.81215  -0.80603  -0.78286
 Alpha  occ. eigenvalues --   -0.76909  -0.73420  -0.68983  -0.65665  -0.63726
 Alpha  occ. eigenvalues --   -0.62224  -0.59889  -0.59689  -0.56734  -0.56324
 Alpha  occ. eigenvalues --   -0.53532  -0.52947  -0.50391  -0.48919  -0.48019
 Alpha  occ. eigenvalues --   -0.47880  -0.47234  -0.46671  -0.46556  -0.46038
 Alpha  occ. eigenvalues --   -0.45191  -0.45075  -0.44915  -0.40132  -0.39922
 Alpha  occ. eigenvalues --   -0.39674  -0.39504  -0.38329  -0.37818  -0.37803
 Alpha  occ. eigenvalues --   -0.36555  -0.29390  -0.29339  -0.28657  -0.28374
 Alpha  occ. eigenvalues --   -0.27412  -0.25051  -0.21296
 Alpha virt. eigenvalues --   -0.11106  -0.04886  -0.01475   0.00108   0.01226
 Alpha virt. eigenvalues --    0.05332   0.05353   0.05678   0.06410   0.06673
 Alpha virt. eigenvalues --    0.08425   0.09098   0.09767   0.10101   0.11492
 Alpha virt. eigenvalues --    0.11512   0.12499   0.12857   0.13103   0.15073
 Alpha virt. eigenvalues --    0.15257   0.16092   0.16247   0.17096   0.17679
 Alpha virt. eigenvalues --    0.19201   0.19226   0.20039   0.20056   0.20991
 Alpha virt. eigenvalues --    0.21267   0.21340   0.22734   0.22814   0.23260
 Alpha virt. eigenvalues --    0.23599   0.24766   0.25075   0.25394   0.25673
 Alpha virt. eigenvalues --    0.26129   0.26236   0.26240   0.26656   0.27931
 Alpha virt. eigenvalues --    0.29420   0.29555   0.29771   0.30785   0.32089
 Alpha virt. eigenvalues --    0.32339   0.32918   0.32921   0.33353   0.33848
 Alpha virt. eigenvalues --    0.34449   0.34837   0.35873   0.35985   0.36900
 Alpha virt. eigenvalues --    0.37075   0.37498   0.38469   0.38690   0.39896
 Alpha virt. eigenvalues --    0.40117   0.41097   0.41225   0.41577   0.42289
 Alpha virt. eigenvalues --    0.42381   0.42765   0.43334   0.43570   0.44573
 Alpha virt. eigenvalues --    0.44912   0.45184   0.45523   0.46572   0.47429
 Alpha virt. eigenvalues --    0.47631   0.47920   0.48924   0.49565   0.49720
 Alpha virt. eigenvalues --    0.50317   0.50653   0.51642   0.52917   0.53779
 Alpha virt. eigenvalues --    0.53961   0.55878   0.57272   0.57402   0.57956
 Alpha virt. eigenvalues --    0.58447   0.60060   0.61135   0.61963   0.62762
 Alpha virt. eigenvalues --    0.63340   0.63517   0.64046   0.65088   0.65365
 Alpha virt. eigenvalues --    0.67600   0.68008   0.68476   0.69765   0.70394
 Alpha virt. eigenvalues --    0.71603   0.71761   0.71999   0.74520   0.74698
 Alpha virt. eigenvalues --    0.75476   0.76649   0.77088   0.78773   0.80223
 Alpha virt. eigenvalues --    0.83763   0.84086   0.86134   0.86175   0.89211
 Alpha virt. eigenvalues --    0.90874   0.92562   0.94451   0.95365   0.99289
 Alpha virt. eigenvalues --    1.01163   1.02881   1.18533   1.18562   1.20149
 Alpha virt. eigenvalues --    1.20616   1.20680   1.22962   1.23555   1.24403
 Alpha virt. eigenvalues --    1.24411   1.25184   1.25905   1.26179   1.27497
 Alpha virt. eigenvalues --    1.27664   1.28775   1.29671   1.30150   1.31787
 Alpha virt. eigenvalues --    1.31971   1.32301   1.33003   1.33158   1.34221
 Alpha virt. eigenvalues --    1.34845   1.36532   1.37677   1.38351   1.38920
 Alpha virt. eigenvalues --    1.39754   1.40534   1.41093   1.42881   1.43232
 Alpha virt. eigenvalues --    1.43661   1.44982   1.45015   1.45646   1.45716
 Alpha virt. eigenvalues --    1.45989   1.45995   1.47492   1.49287   1.49682
 Alpha virt. eigenvalues --    1.49698   1.49938   1.50240   1.51337   1.51567
 Alpha virt. eigenvalues --    1.51942   1.52387   1.52724   1.53174   1.54074
 Alpha virt. eigenvalues --    1.54740   1.55124   1.55852   1.57266   1.57771
 Alpha virt. eigenvalues --    1.58620   1.59381   1.61623   1.62160   1.63707
 Alpha virt. eigenvalues --    1.66722   1.66922   1.69536   1.70767   1.72933
 Alpha virt. eigenvalues --    1.73340   1.74245   1.74783   1.75722   1.77109
 Alpha virt. eigenvalues --    1.77251   1.79011   1.79618   1.80383   1.81831
 Alpha virt. eigenvalues --    1.82854   1.83918   1.84086   1.86033   1.87173
 Alpha virt. eigenvalues --    1.87592   1.87655   1.89651   1.89664   1.89689
 Alpha virt. eigenvalues --    1.90854   1.92146   1.92385   1.94921   1.95219
 Alpha virt. eigenvalues --    1.95990   1.97422   1.97496   1.99494   2.00577
 Alpha virt. eigenvalues --    2.01211   2.02293   2.06384   2.06516   2.07703
 Alpha virt. eigenvalues --    2.08109   2.10094   2.12461   2.14739   2.15399
 Alpha virt. eigenvalues --    2.18289   2.18727   2.21778   2.22487   2.23937
 Alpha virt. eigenvalues --    2.25635   2.26339   2.27295   2.27616   2.27636
 Alpha virt. eigenvalues --    2.28035   2.29004   2.29864   2.29893   2.30871
 Alpha virt. eigenvalues --    2.31223   2.33000   2.33398   2.35469   2.36036
 Alpha virt. eigenvalues --    2.36047   2.36369   2.36700   2.38007   2.38135
 Alpha virt. eigenvalues --    2.39389   2.39748   2.47097   2.47536   2.49393
 Alpha virt. eigenvalues --    2.52539   2.53143   2.53294   2.54529   2.55011
 Alpha virt. eigenvalues --    2.55134   2.56863   2.57547   2.60303   2.60775
 Alpha virt. eigenvalues --    2.62332   2.62684   2.64469   2.66302   2.66529
 Alpha virt. eigenvalues --    2.66729   2.67135   2.68448   2.71060   2.71409
 Alpha virt. eigenvalues --    2.71736   2.71808   2.72492   2.73089   2.75931
 Alpha virt. eigenvalues --    2.75962   2.78211   2.78375   2.78495   2.80253
 Alpha virt. eigenvalues --    2.81278   2.83188   2.83261   2.85191   2.87722
 Alpha virt. eigenvalues --    2.91791   2.94981   2.95866   2.98189   3.00066
 Alpha virt. eigenvalues --    3.01923   3.03093   3.03486   3.03822   3.04890
 Alpha virt. eigenvalues --    3.07310   3.08481   3.11228   3.12449   3.13894
 Alpha virt. eigenvalues --    3.14781   3.14821   3.15826   3.16771   3.17790
 Alpha virt. eigenvalues --    3.20163   3.20378   3.20813   3.22192   3.22838
 Alpha virt. eigenvalues --    3.23865   3.27885   3.30036   3.31726   3.34467
 Alpha virt. eigenvalues --    3.36882   3.39399   3.40459   3.47082   3.49918
 Alpha virt. eigenvalues --    3.52627   3.55446   3.60438   3.62656   3.63917
 Alpha virt. eigenvalues --    3.71018   3.89522   3.90669   3.94426   4.00846
 Alpha virt. eigenvalues --    4.33432   4.34627  21.41879  21.50415  21.87662
 Alpha virt. eigenvalues --   21.91707  21.99753  22.00449  22.04389  22.13305
 Alpha virt. eigenvalues --   22.14524  22.21632  22.22218  22.28859  22.29294
 Alpha virt. eigenvalues --   22.35000  22.36562  22.46999  31.98854  32.00979
 Alpha virt. eigenvalues --   43.74281  43.75133
          Condensed to atoms (all electrons):
               1          2          3          4          5          6
     1  C    5.112577   0.432502   0.025669  -0.104359   0.050923   0.264822
     2  C    0.432502   4.943552   0.403025   0.015672  -0.100358   0.033445
     3  C    0.025669   0.403025   5.450564   0.336137  -0.111779  -0.182500
     4  C   -0.104359   0.015672   0.336137   5.190382   0.049776  -0.038696
     5  C    0.050923  -0.100358  -0.111779   0.049776   6.762698   0.219588
     6  C    0.264822   0.033445  -0.182500  -0.038696   0.219588   5.553805
     7  N    0.000402   0.009141  -0.079218   0.386534  -0.109966   0.013770
     8  C   -0.008677   0.001337  -0.014717  -0.097044   0.065626   0.065148
     9  C    0.037220   0.002967   0.085871   0.130526  -0.627113  -0.173113
    10  O   -0.000614   0.000349  -0.000700   0.011405  -0.143634   0.016276
    11  C    0.000773  -0.000095  -0.011116   0.008126  -0.019813  -0.013859
    12  C   -0.000009   0.000016  -0.000121   0.003679  -0.005410   0.000300
    13  C   -0.000001  -0.000000  -0.000057   0.001451  -0.000886  -0.000022
    14  C    0.000001  -0.000001   0.000001  -0.000339   0.001451  -0.000035
    15  N    0.000004  -0.000004   0.000022   0.000995   0.004047  -0.000195
    16  O   -0.000001   0.000000  -0.000401   0.005928  -0.001073   0.000000
    17  C    0.000000   0.000000   0.000000  -0.000035  -0.000022  -0.000000
    18  C   -0.000000  -0.000000  -0.000000   0.000001  -0.000001   0.000000
    19  C   -0.000000   0.000000  -0.000000  -0.000001  -0.000000   0.000000
    20  C   -0.000000  -0.000000  -0.000000   0.000001  -0.000057   0.000000
    21  H    0.408675  -0.055814   0.015400  -0.001137   0.010794  -0.041847
    22  H   -0.061958   0.420378  -0.060469   0.020522  -0.004442   0.019808
    23  H    0.008025  -0.033898   0.365924  -0.023217   0.020326   0.000364
    24  H   -0.067980   0.013393  -0.003092   0.013056  -0.046035   0.431334
    25  H   -0.000153   0.000435  -0.011643  -0.025626   0.013238  -0.000045
    26  H    0.000007  -0.000003   0.000021  -0.000805   0.004922  -0.000061
    27  H    0.000000  -0.000000   0.000000  -0.000003   0.000001   0.000000
    28  H    0.000000  -0.000000   0.000000   0.000000  -0.000000  -0.000000
    29  H    0.000000  -0.000000   0.000000  -0.000000   0.000000  -0.000000
    30  H   -0.000000   0.000000   0.000000   0.000000   0.000001   0.000000
               7          8          9         10         11         12
     1  C    0.000402  -0.008677   0.037220  -0.000614   0.000773  -0.000009
     2  C    0.009141   0.001337   0.002967   0.000349  -0.000095   0.000016
     3  C   -0.079218  -0.014717   0.085871  -0.000700  -0.011116  -0.000121
     4  C    0.386534  -0.097044   0.130526   0.011405   0.008126   0.003679
     5  C   -0.109966   0.065626  -0.627113  -0.143634  -0.019813  -0.005410
     6  C    0.013770   0.065148  -0.173113   0.016276  -0.013859   0.000300
     7  N    6.259440   0.298733  -0.027872   0.006853  -0.123433  -0.009566
     8  C    0.298733   7.539707   0.040219  -0.069478  -1.269769  -0.353904
     9  C   -0.027872   0.040219   6.297968   0.614612  -0.353904   0.026071
    10  O    0.006853  -0.069478   0.614612   7.889849  -0.035977   0.000831
    11  C   -0.123433  -1.269769  -0.353904  -0.035977   7.539707   0.040219
    12  C   -0.009566  -0.353904   0.026071   0.000831   0.040219   6.297968
    13  C    0.004047  -0.019813  -0.005410  -0.001073   0.065626  -0.627113
    14  C    0.000995   0.008126   0.003679   0.005928  -0.097044   0.130526
    15  N    0.007866  -0.123433  -0.009566   0.001219   0.298733  -0.027872
    16  O    0.001219  -0.035977   0.000831   0.000014  -0.069478   0.614612
    17  C   -0.000195  -0.013859   0.000300   0.000000   0.065148  -0.173113
    18  C    0.000004   0.000773  -0.000009  -0.000001  -0.008677   0.037220
    19  C   -0.000004  -0.000095   0.000016   0.000000   0.001337   0.002967
    20  C    0.000022  -0.011116  -0.000121  -0.000401  -0.014717   0.085871
    21  H    0.000034  -0.000041  -0.001441  -0.000030  -0.000013  -0.000000
    22  H   -0.000235   0.000082  -0.000399   0.000000  -0.000005  -0.000000
    23  H   -0.003398   0.002337  -0.003241   0.000004   0.000596   0.000001
    24  H   -0.000348   0.004520  -0.020515   0.007612   0.000290  -0.000004
    25  H    0.368538  -0.025433   0.000031  -0.000166  -0.016733  -0.011115
    26  H    0.000150  -0.016733  -0.011115   0.020015  -0.025433   0.000031
    27  H   -0.000005   0.000290  -0.000004  -0.000000   0.004520  -0.020515
    28  H    0.000000  -0.000013  -0.000000  -0.000000  -0.000041  -0.001441
    29  H    0.000000  -0.000005  -0.000000   0.000000   0.000082  -0.000399
    30  H    0.000000   0.000596   0.000001  -0.000042   0.002337  -0.003241
              13         14         15         16         17         18
     1  C   -0.000001   0.000001   0.000004  -0.000001   0.000000  -0.000000
     2  C   -0.000000  -0.000001  -0.000004   0.000000   0.000000  -0.000000
     3  C   -0.000057   0.000001   0.000022  -0.000401   0.000000  -0.000000
     4  C    0.001451  -0.000339   0.000995   0.005928  -0.000035   0.000001
     5  C   -0.000886   0.001451   0.004047  -0.001073  -0.000022  -0.000001
     6  C   -0.000022  -0.000035  -0.000195   0.000000  -0.000000   0.000000
     7  N    0.004047   0.000995   0.007866   0.001219  -0.000195   0.000004
     8  C   -0.019813   0.008126  -0.123433  -0.035977  -0.013859   0.000773
     9  C   -0.005410   0.003679  -0.009566   0.000831   0.000300  -0.000009
    10  O   -0.001073   0.005928   0.001219   0.000014   0.000000  -0.000001
    11  C    0.065626  -0.097044   0.298733  -0.069478   0.065148  -0.008677
    12  C   -0.627113   0.130526  -0.027872   0.614612  -0.173113   0.037220
    13  C    6.762698   0.049776  -0.109966  -0.143634   0.219588   0.050923
    14  C    0.049776   5.190382   0.386534   0.011405  -0.038696  -0.104359
    15  N   -0.109966   0.386534   6.259440   0.006853   0.013770   0.000402
    16  O   -0.143634   0.011405   0.006853   7.889849   0.016276  -0.000614
    17  C    0.219588  -0.038696   0.013770   0.016276   5.553805   0.264822
    18  C    0.050923  -0.104359   0.000402  -0.000614   0.264822   5.112577
    19  C   -0.100358   0.015672   0.009141   0.000349   0.033445   0.432502
    20  C   -0.111779   0.336137  -0.079218  -0.000700  -0.182500   0.025669
    21  H   -0.000000   0.000000   0.000000  -0.000000  -0.000000   0.000000
    22  H    0.000000  -0.000000   0.000000   0.000000  -0.000000   0.000000
    23  H    0.000001   0.000000   0.000000  -0.000042   0.000000  -0.000000
    24  H    0.000001  -0.000003  -0.000005  -0.000000   0.000000   0.000000
    25  H    0.004922  -0.000805   0.000150   0.020015  -0.000061   0.000007
    26  H    0.013238  -0.025626   0.368538  -0.000166  -0.000045  -0.000153
    27  H   -0.046035   0.013056  -0.000348   0.007612   0.431334  -0.067980
    28  H    0.010794  -0.001137   0.000034  -0.000030  -0.041847   0.408675
    29  H   -0.004442   0.020522  -0.000235   0.000000   0.019808  -0.061958
    30  H    0.020326  -0.023217  -0.003398   0.000004   0.000364   0.008025
              19         20         21         22         23         24
     1  C   -0.000000  -0.000000   0.408675  -0.061958   0.008025  -0.067980
     2  C    0.000000  -0.000000  -0.055814   0.420378  -0.033898   0.013393
     3  C   -0.000000  -0.000000   0.015400  -0.060469   0.365924  -0.003092
     4  C   -0.000001   0.000001  -0.001137   0.020522  -0.023217   0.013056
     5  C   -0.000000  -0.000057   0.010794  -0.004442   0.020326  -0.046035
     6  C    0.000000   0.000000  -0.041847   0.019808   0.000364   0.431334
     7  N   -0.000004   0.000022   0.000034  -0.000235  -0.003398  -0.000348
     8  C   -0.000095  -0.011116  -0.000041   0.000082   0.002337   0.004520
     9  C    0.000016  -0.000121  -0.001441  -0.000399  -0.003241  -0.020515
    10  O    0.000000  -0.000401  -0.000030   0.000000   0.000004   0.007612
    11  C    0.001337  -0.014717  -0.000013  -0.000005   0.000596   0.000290
    12  C    0.002967   0.085871  -0.000000  -0.000000   0.000001  -0.000004
    13  C   -0.100358  -0.111779  -0.000000   0.000000   0.000001   0.000001
    14  C    0.015672   0.336137   0.000000  -0.000000   0.000000  -0.000003
    15  N    0.009141  -0.079218   0.000000   0.000000   0.000000  -0.000005
    16  O    0.000349  -0.000700  -0.000000   0.000000  -0.000042  -0.000000
    17  C    0.033445  -0.182500  -0.000000  -0.000000   0.000000   0.000000
    18  C    0.432502   0.025669   0.000000   0.000000  -0.000000   0.000000
    19  C    4.943552   0.403025  -0.000000  -0.000000   0.000000  -0.000000
    20  C    0.403025   5.450564   0.000000   0.000000   0.000000   0.000000
    21  H   -0.000000   0.000000   0.557266  -0.006835  -0.000226  -0.004851
    22  H   -0.000000   0.000000  -0.006835   0.560448  -0.006439  -0.000180
    23  H    0.000000   0.000000  -0.000226  -0.006439   0.549917   0.000053
    24  H   -0.000000   0.000000  -0.004851  -0.000180   0.000053   0.545310
    25  H   -0.000003   0.000021  -0.000001  -0.000011   0.001709   0.000028
    26  H    0.000435  -0.011643  -0.000000   0.000000  -0.000000  -0.000013
    27  H    0.013393  -0.003092  -0.000000  -0.000000   0.000000   0.000000
    28  H   -0.055814   0.015400  -0.000000   0.000000   0.000000  -0.000000
    29  H    0.420378  -0.060469   0.000000  -0.000000   0.000000  -0.000000
    30  H   -0.033898   0.365924   0.000000   0.000000   0.000000   0.000000
              25         26         27         28         29         30
     1  C   -0.000153   0.000007   0.000000   0.000000   0.000000  -0.000000
     2  C    0.000435  -0.000003  -0.000000  -0.000000  -0.000000   0.000000
     3  C   -0.011643   0.000021   0.000000   0.000000   0.000000   0.000000
     4  C   -0.025626  -0.000805  -0.000003   0.000000  -0.000000   0.000000
     5  C    0.013238   0.004922   0.000001  -0.000000   0.000000   0.000001
     6  C   -0.000045  -0.000061   0.000000  -0.000000  -0.000000   0.000000
     7  N    0.368538   0.000150  -0.000005   0.000000   0.000000   0.000000
     8  C   -0.025433  -0.016733   0.000290  -0.000013  -0.000005   0.000596
     9  C    0.000031  -0.011115  -0.000004  -0.000000  -0.000000   0.000001
    10  O   -0.000166   0.020015  -0.000000  -0.000000   0.000000  -0.000042
    11  C   -0.016733  -0.025433   0.004520  -0.000041   0.000082   0.002337
    12  C   -0.011115   0.000031  -0.020515  -0.001441  -0.000399  -0.003241
    13  C    0.004922   0.013238  -0.046035   0.010794  -0.004442   0.020326
    14  C   -0.000805  -0.025626   0.013056  -0.001137   0.020522  -0.023217
    15  N    0.000150   0.368538  -0.000348   0.000034  -0.000235  -0.003398
    16  O    0.020015  -0.000166   0.007612  -0.000030   0.000000   0.000004
    17  C   -0.000061  -0.000045   0.431334  -0.041847   0.019808   0.000364
    18  C    0.000007  -0.000153  -0.067980   0.408675  -0.061958   0.008025
    19  C   -0.000003   0.000435   0.013393  -0.055814   0.420378  -0.033898
    20  C    0.000021  -0.011643  -0.003092   0.015400  -0.060469   0.365924
    21  H   -0.000001  -0.000000  -0.000000  -0.000000   0.000000   0.000000
    22  H   -0.000011   0.000000  -0.000000   0.000000  -0.000000   0.000000
    23  H    0.001709  -0.000000   0.000000   0.000000   0.000000   0.000000
    24  H    0.000028  -0.000013   0.000000  -0.000000  -0.000000   0.000000
    25  H    0.396255  -0.000079  -0.000013  -0.000000   0.000000  -0.000000
    26  H   -0.000079   0.396255   0.000028  -0.000001  -0.000011   0.001709
    27  H   -0.000013   0.000028   0.545310  -0.004851  -0.000180   0.000053
    28  H   -0.000000  -0.000001  -0.004851   0.557266  -0.006835  -0.000226
    29  H    0.000000  -0.000011  -0.000180  -0.006835   0.560448  -0.006439
    30  H   -0.000000   0.001709   0.000053  -0.000226  -0.006439   0.549917
 Mulliken charges:
               1
     1  C   -0.097848
     2  C   -0.086038
     3  C   -0.206822
     4  C    0.117068
     5  C   -0.032805
     6  C   -0.168287
     7  N   -0.003507
     8  C    0.032613
     9  C   -0.006490
    10  O   -0.322854
    11  C    0.032613
    12  C   -0.006490
    13  C   -0.032805
    14  C    0.117068
    15  N   -0.003507
    16  O   -0.322854
    17  C   -0.168287
    18  C   -0.097848
    19  C   -0.086038
    20  C   -0.206822
    21  H    0.120066
    22  H    0.119737
    23  H    0.121204
    24  H    0.127428
    25  H    0.286535
    26  H    0.286535
    27  H    0.127428
    28  H    0.120066
    29  H    0.119737
    30  H    0.121204
 Sum of Mulliken charges =  -0.00000
 Mulliken charges with hydrogens summed into heavy atoms:
               1
     1  C    0.022218
     2  C    0.033699
     3  C   -0.085618
     4  C    0.117068
     5  C   -0.032805
     6  C   -0.040859
     7  N    0.283028
     8  C    0.032613
     9  C   -0.006490
    10  O   -0.322854
    11  C    0.032613
    12  C   -0.006490
    13  C   -0.032805
    14  C    0.117068
    15  N    0.283028
    16  O   -0.322854
    17  C   -0.040859
    18  C    0.022218
    19  C    0.033699
    20  C   -0.085618
 Electronic spatial extent (au):  <R**2>=           6636.6138
 Charge=              0.0000 electrons
 Dipole moment (field-independent basis, Debye):
    X=              0.0000    Y=              0.0000    Z=              0.0000  Tot=              0.0000
 Quadrupole moment (field-independent basis, Debye-Ang):
   XX=           -113.0054   YY=            -87.0330   ZZ=           -119.0920
   XY=             10.6371   XZ=              0.0000   YZ=              0.0000
 Traceless Quadrupole moment (field-independent basis, Debye-Ang):
   XX=             -6.6286   YY=             19.3438   ZZ=            -12.7152
   XY=             10.6371   XZ=              0.0000   YZ=              0.0000
 Octapole moment (field-independent basis, Debye-Ang**2):
  XXX=              0.0000  YYY=              0.0000  ZZZ=              0.0000  XYY=              0.0000
  XXY=             -0.0000  XXZ=              0.0000  XZZ=              0.0000  YZZ=              0.0000
  YYZ=              0.0000  XYZ=              0.0000
 Hexadecapole moment (field-independent basis, Debye-Ang**3):
 XXXX=          -1209.7002 YYYY=          -6728.4383 ZZZZ=           -128.5542 XXXY=             -0.3196
 XXXZ=              0.0000 YYYX=            -58.9375 YYYZ=              0.0000 ZZZX=              0.0000
 ZZZY=              0.0000 XXYY=          -1336.0595 XXZZ=           -234.0263 YYZZ=          -1487.4808
 XXYZ=              0.0000 YYXZ=              0.0000 ZZXY=            -48.5005
 N-N= 1.382777084871D+03 E-N=-4.804216913056D+03  KE= 8.710222148317D+02
 Symmetry AG   KE= 4.228953075545D+02
 Symmetry BG   KE= 1.315322343827D+01
 Symmetry AU   KE= 1.599974991307D+01
 Symmetry BU   KE= 4.189739339260D+02
 1\1\GINC-192\SP\RPBE1PBE TD-FC\TZVP\C16H10N2O2\ROOT\14-Aug-2017\0\\# P
 BE1PBE/TZVP TD(nstates=20)\\[No Title]\\0,1\C,0,-0.353538,5.306233,0.\
 C,0,1.040155,5.154988,0.\C,0,1.650679,3.904003,0.\C,0,0.821817,2.78544
 ,0.\C,0,-0.582136,2.925858,0.\C,0,-1.174066,4.185385,0.\N,0,1.15943,1.
 446419,0.\C,0,0.022199,0.678223,0.\C,0,-1.15943,1.579913,0.\O,0,-2.328
 846,1.205464,0.\C,0,-0.022199,-0.678223,0.\C,0,1.15943,-1.579913,0.\C,
 0,0.582136,-2.925858,0.\C,0,-0.821817,-2.78544,0.\N,0,-1.15943,-1.4464
 19,0.\O,0,2.328846,-1.205464,0.\C,0,1.174066,-4.185385,0.\C,0,0.353538
 ,-5.306233,0.\C,0,-1.040155,-5.154988,0.\C,0,-1.650679,-3.904003,0.\H,
 0,-0.78645,6.301753,0.\H,0,1.668639,6.041735,0.\H,0,2.732436,3.807686,
 0.\H,0,-2.256986,4.27199,0.\H,0,2.08266,1.033816,0.\H,0,-2.08266,-1.03
 3816,0.\H,0,2.256986,-4.27199,0.\H,0,0.78645,-6.301753,0.\H,0,-1.66863
 9,-6.041735,0.\H,0,-2.732436,-3.807686,0.\\Version=ES64L-G16RevA.03\St
 ate=1-AG\HF=-874.9771943\RMSD=8.424e-09\PG=C02H [SGH(C16H10N2O2)]\\@


 IN THE FIGHT BETWEEN YOU AND THE WORLD, BACK THE WORLD

                                        -- FRANZ KAFKA
 Job cpu time:       0 days  1 hours 27 minutes  9.7 seconds.
 Elapsed time:       0 days  0 hours  2 minutes 25.6 seconds.
 File lengths (MBytes):  RWF=   1790 Int=      0 D2E=      0 Chk=    132 Scr=      1
 Normal termination of Gaussian 16 at Mon Aug 14 18:14:50 2017.
