 Default is to use a total of   4 processors:
                                4 via shared-memory
                                1 via Linda
 Entering Link 1 = d:\study\G16W\l1.exe PID=      3288.
  
 Copyright (c) 1988,1990,1992,1993,1995,1998,2003,2009,2016,
            Gaussian, Inc.  All Rights Reserved.
  
 This is part of the Gaussian(R) 16 program.  It is based on
 the Gaussian(R) 09 system (copyright 2009, Gaussian, Inc.),
 the Gaussian(R) 03 system (copyright 2003, Gaussian, Inc.),
 the Gaussian(R) 98 system (copyright 1998, Gaussian, Inc.),
 the Gaussian(R) 94 system (copyright 1995, Gaussian, Inc.),
 the Gaussian 92(TM) system (copyright 1992, Gaussian, Inc.),
 the Gaussian 90(TM) system (copyright 1990, Gaussian, Inc.),
 the Gaussian 88(TM) system (copyright 1988, Gaussian, Inc.),
 the Gaussian 86(TM) system (copyright 1986, Carnegie Mellon
 University), and the Gaussian 82(TM) system (copyright 1983,
 Carnegie Mellon University). Gaussian is a federally registered
 trademark of Gaussian, Inc.
  
 This software contains proprietary and confidential information,
 including trade secrets, belonging to Gaussian, Inc.
  
 This software is provided under written license and may be
 used, copied, transmitted, or stored only in accord with that
 written license.
  
 The following legend is applicable only to US Government
 contracts under FAR:
  
                    RESTRICTED RIGHTS LEGEND
  
 Use, reproduction and disclosure by the US Government is
 subject to restrictions as set forth in subparagraphs (a)
 and (c) of the Commercial Computer Software - Restricted
 Rights clause in FAR 52.227-19.
  
 Gaussian, Inc.
 340 Quinnipiac St., Bldg. 40, Wallingford CT 06492
  
  
 ---------------------------------------------------------------
 Warning -- This program may not be used in any manner that
 competes with the business of Gaussian, Inc. or will provide
 assistance to any competitor of Gaussian, Inc.  The licensee
 of this program is prohibited from giving any competitor of
 Gaussian, Inc. access to this program.  By using this program,
 the user acknowledges that Gaussian, Inc. is engaged in the
 business of creating and licensing software in the field of
 computational chemistry and represents and warrants to the
 licensee that it is not a competitor of Gaussian, Inc. and that
 it will not use this program in any manner prohibited above.
 ---------------------------------------------------------------
  

 Cite this work as:
 Gaussian 16, Revision A.03,
 M. J. Frisch, G. W. Trucks, H. B. Schlegel, G. E. Scuseria, 
 M. A. Robb, J. R. Cheeseman, G. Scalmani, V. Barone, 
 G. A. Petersson, H. Nakatsuji, X. Li, M. Caricato, A. V. Marenich, 
 J. Bloino, B. G. Janesko, R. Gomperts, B. Mennucci, H. P. Hratchian, 
 J. V. Ortiz, A. F. Izmaylov, J. L. Sonnenberg, D. Williams-Young, 
 F. Ding, F. Lipparini, F. Egidi, J. Goings, B. Peng, A. Petrone, 
 T. Henderson, D. Ranasinghe, V. G. Zakrzewski, J. Gao, N. Rega, 
 G. Zheng, W. Liang, M. Hada, M. Ehara, K. Toyota, R. Fukuda, 
 J. Hasegawa, M. Ishida, T. Nakajima, Y. Honda, O. Kitao, H. Nakai, 
 T. Vreven, K. Throssell, J. A. Montgomery, Jr., J. E. Peralta, 
 F. Ogliaro, M. J. Bearpark, J. J. Heyd, E. N. Brothers, K. N. Kudin, 
 V. N. Staroverov, T. A. Keith, R. Kobayashi, J. Normand, 
 K. Raghavachari, A. P. Rendell, J. C. Burant, S. S. Iyengar, 
 J. Tomasi, M. Cossi, J. M. Millam, M. Klene, C. Adamo, R. Cammi, 
 J. W. Ochterski, R. L. Martin, K. Morokuma, O. Farkas, 
 J. B. Foresman, and D. J. Fox, Gaussian, Inc., Wallingford CT, 2016.
 
 ******************************************
 Gaussian 16:  IA32W-G16RevA.03 25-Dec-2016
                14-Aug-2017 
 ******************************************
 -------------------
 # ZINDO(nstates=30)
 -------------------
 1/38=1,172=1/1;
 2/12=2,17=6,18=5,40=1/2;
 3/5=2,25=1,41=400000/1,2,3,8;
 4/5=3,35=1/1;
 5/5=2,35=1,38=5/2;
 8/6=1,108=30/1;
 9/41=30,42=1,49=10/14;
 6/7=2,8=2,9=2,10=2/1;
 99/5=1,9=1/99;
 ----------
 [No Title]
 ----------
 Symbolic Z-matrix:
 Charge =  0 Multiplicity = 1
 C                    -0.35354   5.30623   0. 
 C                     1.04015   5.15499   0. 
 C                     1.65068   3.904     0. 
 C                     0.82182   2.78544   0. 
 C                    -0.58214   2.92586   0. 
 C                    -1.17407   4.18539   0. 
 N                     1.15943   1.44642   0. 
 C                     0.0222    0.67822   0. 
 C                    -1.15943   1.57991   0. 
 O                    -2.32885   1.20546   0. 
 C                    -0.0222   -0.67822   0. 
 C                     1.15943  -1.57991   0. 
 C                     0.58214  -2.92586   0. 
 C                    -0.82182  -2.78544   0. 
 N                    -1.15943  -1.44642   0. 
 O                     2.32885  -1.20546   0. 
 C                     1.17407  -4.18539   0. 
 C                     0.35354  -5.30623   0. 
 C                    -1.04015  -5.15499   0. 
 C                    -1.65068  -3.904     0. 
 H                    -0.78645   6.30175   0. 
 H                     1.66864   6.04174   0. 
 H                     2.73244   3.80769   0. 
 H                    -2.25699   4.27199   0. 
 H                     2.08266   1.03382   0. 
 H                    -2.08266  -1.03382   0. 
 H                     2.25699  -4.27199   0. 
 H                     0.78645  -6.30175   0. 
 H                    -1.66864  -6.04174   0. 
 H                    -2.73244  -3.80769   0. 
 
                          Input orientation:                          
 ---------------------------------------------------------------------
 Center     Atomic      Atomic             Coordinates (Angstroms)
 Number     Number       Type             X           Y           Z
 ---------------------------------------------------------------------
      1          6           0       -0.353538    5.306233    0.000000
      2          6           0        1.040155    5.154988    0.000000
      3          6           0        1.650679    3.904003    0.000000
      4          6           0        0.821817    2.785440    0.000000
      5          6           0       -0.582136    2.925858    0.000000
      6          6           0       -1.174066    4.185385    0.000000
      7          7           0        1.159430    1.446419    0.000000
      8          6           0        0.022199    0.678223    0.000000
      9          6           0       -1.159430    1.579913    0.000000
     10          8           0       -2.328846    1.205464    0.000000
     11          6           0       -0.022199   -0.678223    0.000000
     12          6           0        1.159430   -1.579913    0.000000
     13          6           0        0.582136   -2.925858    0.000000
     14          6           0       -0.821817   -2.785440    0.000000
     15          7           0       -1.159430   -1.446419    0.000000
     16          8           0        2.328846   -1.205464    0.000000
     17          6           0        1.174066   -4.185385    0.000000
     18          6           0        0.353538   -5.306233    0.000000
     19          6           0       -1.040155   -5.154988    0.000000
     20          6           0       -1.650679   -3.904003    0.000000
     21          1           0       -0.786450    6.301753    0.000000
     22          1           0        1.668639    6.041735    0.000000
     23          1           0        2.732436    3.807686    0.000000
     24          1           0       -2.256986    4.271990    0.000000
     25          1           0        2.082660    1.033816    0.000000
     26          1           0       -2.082660   -1.033816    0.000000
     27          1           0        2.256986   -4.271990    0.000000
     28          1           0        0.786450   -6.301753    0.000000
     29          1           0       -1.668639   -6.041735    0.000000
     30          1           0       -2.732436   -3.807686    0.000000
 ---------------------------------------------------------------------
                    Distance matrix (angstroms):
                    1          2          3          4          5
     1  C    0.000000
     2  C    1.401876   0.000000
     3  C    2.446045   1.392014   0.000000
     4  C    2.781341   2.379586   1.392191   0.000000
     5  C    2.391326   2.756964   2.437669   1.410958   0.000000
     6  C    1.389088   2.417210   2.838725   2.437908   1.391686
     7  N    4.145749   3.710487   2.506201   1.380927   2.285124
     8  C    4.643238   4.591041   3.613531   2.253831   2.327463
     9  C    3.812469   4.197539   3.646657   2.319188   1.464526
    10  O    4.551719   5.191234   4.808194   3.524628   2.451683
    11  C    5.993622   5.929161   4.878044   3.565014   3.647318
    12  C    7.050396   6.735957   5.505875   4.378389   4.830634
    13  C    8.285096   8.093816   6.912943   5.716325   5.966415
    14  C    8.105212   8.155816   7.131752   5.808290   5.716325
    15  N    6.800571   6.958214   6.043486   4.672683   4.410224
    16  O    7.042541   6.489690   5.154276   4.265964   5.053874
    17  C    9.613760   9.341333   8.103416   6.979719   7.324891
    18  C   10.635995  10.483730   9.301130   8.105212   8.285096
    19  C   10.483730  10.517761   9.450180   8.155816   8.093816
    20  C    9.301130   9.450180   8.477259   7.131752   6.912943
    21  H    1.085575   2.156747   3.418889   3.866650   3.382072
    22  H    2.151781   1.086882   2.137807   3.364605   3.843784
    23  H    3.430580   2.163108   1.086036   2.166899   3.429870
    24  H    2.166281   3.413330   3.924954   3.418897   2.148766
    25  H    4.918192   4.250985   2.902513   2.158220   3.268174
    26  H    6.571612   6.932046   6.190305   4.798198   4.234453
    27  H    9.927597   9.505188   8.198443   7.201877   7.737547
    28  H   11.663829  11.459550  10.242282   9.087262   9.328549
    29  H   11.423917  11.519730  10.485017   9.171771   9.033173
    30  H    9.419271   9.724298   8.870279   7.490128   7.068550
                    6          7          8          9         10
     6  C    0.000000
     7  N    3.598213   0.000000
     8  C    3.705568   1.372377   0.000000
     9  C    2.605513   2.322699   1.486369   0.000000
    10  O    3.195848   3.496588   2.409439   1.227903   0.000000
    11  C    4.998148   2.431121   1.357172   2.528334   2.978069
    12  C    6.219635   3.026332   2.528334   3.919389   4.463899
    13  C    7.324891   4.410224   3.647318   4.830634   5.053874
    14  C    6.979719   4.672683   3.565014   4.378389   4.265964
    15  N    5.631823   3.707509   2.431121   3.026332   2.898278
    16  O    6.428969   2.898278   2.978069   4.463899   5.244680
    17  C    8.693878   5.631823   4.998148   6.219635   6.428969
    18  C    9.613760   6.800571   5.993622   7.050396   7.042541
    19  C    9.341333   6.958214   5.929161   6.735957   6.489690
    20  C    8.103416   6.043486   4.878044   5.505875   5.154276
    21  H    2.151571   5.230747   5.681373   4.736548   5.324580
    22  H    3.395145   4.623443   5.610528   5.282597   6.274504
    23  H    3.924718   2.837240   4.139918   4.484372   5.691057
    24  H    1.086378   4.433481   4.255566   2.907216   3.067368
    25  H    4.531959   1.011234   2.090920   3.287761   4.414844
    26  H    5.297698   4.081999   2.713210   2.771991   2.252772
    27  H    9.126846   5.822785   5.431287   6.776184   7.143694
    28  H   10.668818   7.757144   7.021691   8.118319   8.127938
    29  H   10.239072   8.004400   6.929413   7.638639   7.277209
    30  H    8.143568   6.538520   5.264161   5.612537   5.029370
                   11         12         13         14         15
    11  C    0.000000
    12  C    1.486369   0.000000
    13  C    2.327463   1.464526   0.000000
    14  C    2.253831   2.319188   1.410958   0.000000
    15  N    1.372377   2.322699   2.285124   1.380927   0.000000
    16  O    2.409439   1.227903   2.451683   3.524628   3.496588
    17  C    3.705568   2.605513   1.391686   2.437908   3.598213
    18  C    4.643238   3.812469   2.391326   2.781341   4.145749
    19  C    4.591041   4.197539   2.756964   2.379586   3.710487
    20  C    3.613531   3.646657   2.437669   1.392191   2.506201
    21  H    7.021691   8.118319   9.328549   9.087262   7.757144
    22  H    6.929413   7.638639   9.033173   9.171771   8.004400
    23  H    5.264161   5.612537   7.068550   7.490128   6.538520
    24  H    5.431287   6.776184   7.737547   7.201877   5.822785
    25  H    2.713210   2.771991   4.234453   4.798198   4.081999
    26  H    2.090920   3.287761   3.268174   2.158220   1.011234
    27  H    4.255566   2.907216   2.148766   3.418897   4.433481
    28  H    5.681373   4.736548   3.382072   3.866650   5.230747
    29  H    5.610528   5.282597   3.843784   3.364605   4.623443
    30  H    4.139918   4.484372   3.429870   2.166899   2.837240
                   16         17         18         19         20
    16  O    0.000000
    17  C    3.195848   0.000000
    18  C    4.551719   1.389088   0.000000
    19  C    5.191234   2.417210   1.401876   0.000000
    20  C    4.808194   2.838725   2.446045   1.392014   0.000000
    21  H    8.127938  10.668818  11.663829  11.459550  10.242282
    22  H    7.277209  10.239072  11.423917  11.519730  10.485017
    23  H    5.029370   8.143568   9.419271   9.724298   8.870279
    24  H    7.143694   9.126846   9.927597   9.505188   8.198443
    25  H    2.252772   5.297698   6.571612   6.932046   6.190305
    26  H    4.414844   4.531959   4.918192   4.250985   2.902513
    27  H    3.067368   1.086378   2.166281   3.413330   3.924954
    28  H    5.324580   2.151571   1.085575   2.156747   3.418889
    29  H    6.274504   3.395145   2.151781   1.086882   2.137807
    30  H    5.691057   3.924718   3.430580   2.163108   1.086036
                   21         22         23         24         25
    21  H    0.000000
    22  H    2.468820   0.000000
    23  H    4.313111   2.474397   0.000000
    24  H    2.506474   4.306104   5.010979   0.000000
    25  H    5.998579   5.025004   2.848958   5.414637   0.000000
    26  H    7.449210   8.008475   6.828271   5.308669   4.650268
    27  H   11.003024  10.330493   8.093653   9.663102   5.308669
    28  H   12.701275  12.374973  10.295029  11.003024   7.449210
    29  H   12.374973  12.535855  10.787982  10.330493   8.008475
    30  H   10.295029  10.787982   9.373298   8.093653   6.828271
                   26         27         28         29         30
    26  H    0.000000
    27  H    5.414637   0.000000
    28  H    5.998579   2.506474   0.000000
    29  H    5.025004   4.306104   2.468820   0.000000
    30  H    2.848958   5.010979   4.313111   2.474397   0.000000
 Stoichiometry    C16H10N2O2
 Framework group  C2H[SGH(C16H10N2O2)]
 Deg. of freedom    29
 Full point group                 C2H     NOp   4
 Largest Abelian subgroup         C2H     NOp   4
 Largest concise Abelian subgroup C2      NOp   2
                         Standard orientation:                         
 ---------------------------------------------------------------------
 Center     Atomic      Atomic             Coordinates (Angstroms)
 Number     Number       Type             X           Y           Z
 ---------------------------------------------------------------------
      1          6           0       -0.353538    5.306233    0.000000
      2          6           0        1.040155    5.154988    0.000000
      3          6           0        1.650679    3.904003    0.000000
      4          6           0        0.821817    2.785440    0.000000
      5          6           0       -0.582136    2.925858    0.000000
      6          6           0       -1.174066    4.185385    0.000000
      7          7           0        1.159430    1.446419    0.000000
      8          6           0        0.022199    0.678223    0.000000
      9          6           0       -1.159430    1.579913    0.000000
     10          8           0       -2.328846    1.205464    0.000000
     11          6           0       -0.022199   -0.678223    0.000000
     12          6           0        1.159430   -1.579913    0.000000
     13          6           0        0.582136   -2.925858    0.000000
     14          6           0       -0.821817   -2.785440    0.000000
     15          7           0       -1.159430   -1.446419    0.000000
     16          8           0        2.328846   -1.205464    0.000000
     17          6           0        1.174066   -4.185385    0.000000
     18          6           0        0.353538   -5.306233    0.000000
     19          6           0       -1.040155   -5.154988    0.000000
     20          6           0       -1.650679   -3.904003    0.000000
     21          1           0       -0.786450    6.301753    0.000000
     22          1           0        1.668639    6.041735    0.000000
     23          1           0        2.732436    3.807686    0.000000
     24          1           0       -2.256986    4.271990    0.000000
     25          1           0        2.082660    1.033816    0.000000
     26          1           0       -2.082660   -1.033816    0.000000
     27          1           0        2.256986   -4.271990    0.000000
     28          1           0        0.786450   -6.301753    0.000000
     29          1           0       -1.668639   -6.041735    0.000000
     30          1           0       -2.732436   -3.807686    0.000000
 ---------------------------------------------------------------------
 Rotational constants (GHZ):           1.1632799           0.1748182           0.1519788
 Standard basis: VSTO-6G (5D, 7F)
 There are    35 symmetry adapted cartesian basis functions of AG  symmetry.
 There are    10 symmetry adapted cartesian basis functions of BG  symmetry.
 There are    10 symmetry adapted cartesian basis functions of AU  symmetry.
 There are    35 symmetry adapted cartesian basis functions of BU  symmetry.
 There are    35 symmetry adapted basis functions of AG  symmetry.
 There are    10 symmetry adapted basis functions of BG  symmetry.
 There are    10 symmetry adapted basis functions of AU  symmetry.
 There are    35 symmetry adapted basis functions of BU  symmetry.
    90 basis functions,   540 primitive gaussians,    90 cartesian basis functions
    48 alpha electrons       48 beta electrons
       nuclear repulsion energy       682.2859940775 Hartrees.
 Integral buffers will be    262144 words long.
 Regular integral format.
 Two-electron integral symmetry is turned off.
 Do NDO integrals.
 One-electron integrals computed using PRISM.
 Generate ZINDO/S integrals.
 NDO Nuclear repulsion=   529.976285512708 Hartrees.
 NBasis=    90 RedAO= T EigKep=  1.00D+00  NBF=    35    10    10    35
 NBsUse=    90 1.00D-06 EigRej= -1.00D+00 NBFU=    35    10    10    35
 DipDrv:  will hold  3 matrices at once.
 Simple Huckel Guess.
 Initial guess orbital symmetries:
       Occupied  (AG) (BU) (AG) (BU) (BU) (AG) (BU) (AG) (AG) (BU)
                 (AG) (BU) (AG) (BU) (AG) (BU) (AG) (BU) (BU) (AG)
                 (BU) (AU) (AG) (BG) (AG) (BU) (AG) (AG) (BU) (BU)
                 (AU) (BG) (AG) (BU) (AU) (AG) (BG) (BU) (AG) (BU)
                 (AG) (AU) (BG) (AU) (BU) (AG) (BG) (AU)
       Virtual   (BG) (AU) (BG) (AU) (BG) (AU) (BG) (AU) (BG) (BU)
                 (AG) (BU) (BU) (AG) (AG) (BU) (BU) (AG) (AG) (BU)
                 (AG) (BU) (AG) (BU) (AG) (BU) (AG) (BU) (AG) (BU)
                 (AG) (BU) (BU) (AG) (AG) (BU) (AG) (BU) (AG) (BU)
                 (BU) (AG)
 The electronic state of the initial guess is 1-AG.
 Overlap will be assumed to be unity.
 Requested convergence on RMS density matrix=1.00D-08 within 128 cycles.
 Requested convergence on MAX density matrix=1.00D-06.
 Requested convergence on             energy=1.00D-06.
 No special actions if energy rises.
 SCF Done:  E(RZINDO/S) =  -138.408161333     A.U. after   14 cycles
            NFock= 14  Conv=0.34D-08     -V/T= 0.8902
 Range of M.O.s used for correlation:     1    90
 NBasis=    90 NAE=    48 NBE=    48 NFC=     0 NFV=     0
 NROrb=     90 NOA=    48 NOB=    48 NVA=    42 NVB=    42
 Orbital symmetries:
       Occupied  (AG) (BU) (AG) (BU) (BU) (AG) (AG) (BU) (AG) (BU)
                 (AG) (BU) (AG) (BU) (AG) (BU) (AG) (BU) (BU) (AG)
                 (BU) (AG) (AG) (BU) (AU) (AG) (BU) (AG) (BU) (BG)
                 (BU) (AG) (AG) (BU) (AG) (AU) (BG) (AU) (BU) (AG)
                 (BG) (BU) (AU) (AG) (BG) (AU) (BG) (AU)
       Virtual   (BG) (AU) (BG) (AU) (BG) (AU) (BU) (BG) (AG) (BU)
                 (AU) (BG) (AG) (BU) (AG) (BU) (AG) (BU) (BU) (AG)
                 (AG) (BU) (AG) (BU) (AG) (BU) (AG) (BU) (AG) (BU)
                 (AG) (AG) (BU) (BU) (AG) (BU) (AG) (BU) (AG) (BU)
                 (AG) (BU)
   120 initial guesses have been made.
 Convergence on wavefunction:    0.001000000000000
 Iteration     1 Dimension   120 NMult     0 NNew    120
 CISAX will form   120 AO SS matrices at one time.
 New state      1 was old state      6
 New state      2 was old state     12
 New state      3 was old state      1
 New state      4 was old state      2
 New state      5 was old state      3
 New state      6 was old state      9
 New state      7 was old state      4
 New state      8 was old state      5
 New state      9 was old state      8
 New state     11 was old state      7
 New state     12 was old state     23
 New state     14 was old state     11
 New state     15 was old state     24
 New state     16 was old state     17
 New state     17 was old state     15
 New state     19 was old state     34
 New state     20 was old state     36
 New state     21 was old state     14
 New state     22 was old state     29
 New state     23 was old state     16
 New state     24 was old state     44
 New state     25 was old state     50
 New state     26 was old state     20
 New state     27 was old state     38
 New state     28 was old state     37
 New state     29 was old state     19
 New state     30 was old state     32
 Iteration     2 Dimension   240 NMult   120 NNew    120
 New state      2 was old state      3
 New state      3 was old state      2
 New state     12 was old state     13
 New state     13 was old state     12
 New state     16 was old state     17
 New state     17 was old state     16
 New state     18 was old state     21
 New state     19 was old state     18
 New state     20 was old state     19
 New state     21 was old state     22
 New state     22 was old state     20
 New state     25 was old state     26
 New state     26 was old state     27
 New state     27 was old state     25
 Iteration     3 Dimension   270 NMult   240 NNew     30
 New state     20 was old state     21
 New state     21 was old state     20
 Iteration     4 Dimension   300 NMult   270 NNew     30
 Iteration     5 Dimension   313 NMult   300 NNew     13
 Iteration     6 Dimension   315 NMult   313 NNew      2
 ***********************************************************************
 Excited states from <AA,BB:AA,BB> singles matrix:
 ***********************************************************************
 
 Ground to excited state transition densities written to RWF  633
 Ground to excited state transition electric dipole moments (Au):
       state          X           Y           Z        Dip. S.      Osc.
         1         0.0000      0.0000      0.0000      0.0000      0.0000
         2        -1.1199      2.3148      0.0000      6.6123      0.4652
         3         0.0000      0.0000     -0.0131      0.0002      0.0000
         4         0.0000      0.0000      0.0000      0.0000      0.0000
         5         0.0000      0.0000      0.0000      0.0000      0.0000
         6        -1.0156     -2.0688      0.0000      5.3115      0.5383
         7         0.2602      1.0643      0.0000      1.2005      0.1281
         8         0.0000      0.0000      0.0000      0.0000      0.0000
         9         0.2972      2.4400      0.0000      6.0420      0.7249
        10         0.0000      0.0000      0.0000      0.0000      0.0000
        11         1.0993      1.3052      0.0000      2.9119      0.3611
        12         0.0000      0.0000      0.0000      0.0000      0.0000
        13         0.0000      0.0000      0.0000      0.0000      0.0000
        14        -0.4685      0.5177      0.0000      0.4875      0.0659
        15         0.0000      0.0000      0.0000      0.0000      0.0000
        16        -1.1430     -0.6258      0.0000      1.6980      0.2376
        17         0.0000      0.0000      0.0946      0.0090      0.0013
        18         0.0000      0.0000      0.0000      0.0000      0.0000
        19         0.0000      0.0000      0.0000      0.0000      0.0000
        20         1.3569     -0.2935      0.0000      1.9274      0.2777
        21         0.0000      0.0000      0.1305      0.0170      0.0025
        22         0.0000      0.0000      0.0000      0.0000      0.0000
        23        -0.7944      1.4917      0.0000      2.8563      0.4147
        24         0.0000      0.0000      0.0000      0.0000      0.0000
        25         0.0000      0.0000      0.0000      0.0000      0.0000
        26        -0.1600     -1.4830      0.0000      2.2250      0.3422
        27         0.0000      0.0000     -0.3244      0.1052      0.0163
        28         0.0000      0.0000      0.0000      0.0000      0.0000
        29         0.0000      0.0000      0.0000      0.0000      0.0000
        30         0.0000      0.0000     -0.1056      0.0111      0.0018
 Ground to excited state transition velocity dipole moments (Au):
       state          X           Y           Z        Dip. S.      Osc.
         1         0.0000      0.0000      0.0000      0.0000      0.0000
         2        -0.0003     -0.1834      0.0000      0.0336      0.2125
         3         0.0000      0.0000      0.0061      0.0000      0.0002
         4         0.0000      0.0000      0.0000      0.0000      0.0000
         5         0.0000      0.0000      0.0000      0.0000      0.0000
         6         0.0484      0.2371      0.0000      0.0586      0.2569
         7        -0.0021     -0.1131      0.0000      0.0128      0.0533
         8         0.0000      0.0000      0.0000      0.0000      0.0000
         9        -0.0208     -0.2852      0.0000      0.0818      0.3029
        10         0.0000      0.0000      0.0000      0.0000      0.0000
        11        -0.0747     -0.1470      0.0000      0.0272      0.0974
        12         0.0000      0.0000      0.0000      0.0000      0.0000
        13         0.0000      0.0000      0.0000      0.0000      0.0000
        14         0.0357     -0.0293      0.0000      0.0021      0.0070
        15         0.0000      0.0000      0.0000      0.0000      0.0000
        16         0.0997      0.1100      0.0000      0.0220      0.0700
        17         0.0000      0.0000     -0.0535      0.0029      0.0090
        18         0.0000      0.0000      0.0000      0.0000      0.0000
        19         0.0000      0.0000      0.0000      0.0000      0.0000
        20        -0.1342      0.0306      0.0000      0.0189      0.0584
        21         0.0000      0.0000     -0.0239      0.0006      0.0018
        22         0.0000      0.0000      0.0000      0.0000      0.0000
        23         0.0829     -0.2218      0.0000      0.0561      0.1716
        24         0.0000      0.0000      0.0000      0.0000      0.0000
        25         0.0000      0.0000      0.0000      0.0000      0.0000
        26         0.0278      0.2288      0.0000      0.0531      0.1535
        27         0.0000      0.0000     -0.0336      0.0011      0.0032
        28         0.0000      0.0000      0.0000      0.0000      0.0000
        29         0.0000      0.0000      0.0000      0.0000      0.0000
        30         0.0000      0.0000      0.0213      0.0005      0.0013
 Ground to excited state transition magnetic dipole moments (Au):
       state          X           Y           Z
         1        -0.8872     -0.2665      0.0000
         2         0.0000      0.0000      0.0000
         3         0.0000      0.0000      0.0000
         4         0.0000      0.0000     -1.2869
         5         0.0000      0.0000     -0.2019
         6         0.0000      0.0000      0.0000
         7         0.0000      0.0000      0.0000
         8         0.0000      0.0000     -0.2745
         9         0.0000      0.0000      0.0000
        10         0.0000      0.0000     -0.0103
        11         0.0000      0.0000      0.0000
        12         0.0000      0.0000     -0.2710
        13         0.0251      0.0430      0.0000
        14         0.0000      0.0000      0.0000
        15        -0.8105     -0.4428      0.0000
        16         0.0000      0.0000      0.0000
        17         0.0000      0.0000      0.0000
        18         0.0000      0.0000     -0.6567
        19         0.0000      0.0000      1.3666
        20         0.0000      0.0000      0.0000
        21         0.0000      0.0000      0.0000
        22         0.1834     -0.1367      0.0000
        23         0.0000      0.0000      0.0000
        24         0.0000      0.0000     -1.9765
        25         0.0000      0.0000     -0.3287
        26         0.0000      0.0000      0.0000
        27         0.0000      0.0000      0.0000
        28         0.2206     -0.2406      0.0000
        29         0.0000      0.0000     -0.9441
        30         0.0000      0.0000      0.0000
 Ground to excited state transition velocity quadrupole moments (Au):
       state          XX          YY          ZZ          XY          XZ          YZ
         1         0.0000      0.0000      0.0000      0.0000     -0.0198     -0.0153
         2         0.0000      0.0000      0.0000      0.0000      0.0000      0.0000
         3         0.0000      0.0000      0.0000      0.0000      0.0000      0.0000
         4        -0.0281      0.3208      0.0107      0.2383      0.0000      0.0000
         5         0.0294     -0.1417     -0.0062      0.2504      0.0000      0.0000
         6         0.0000      0.0000      0.0000      0.0000      0.0000      0.0000
         7         0.0000      0.0000      0.0000      0.0000      0.0000      0.0000
         8        -0.0812      0.3865      0.0108      0.0885      0.0000      0.0000
         9         0.0000      0.0000      0.0000      0.0000      0.0000      0.0000
        10        -0.1408      1.6567      0.0336      0.0727      0.0000      0.0000
        11         0.0000      0.0000      0.0000      0.0000      0.0000      0.0000
        12         0.0339      2.9936      0.0299      0.4127      0.0000      0.0000
        13         0.0000      0.0000      0.0000      0.0000      0.0786      0.1056
        14         0.0000      0.0000      0.0000      0.0000      0.0000      0.0000
        15         0.0000      0.0000      0.0000      0.0000      0.0002     -0.0991
        16         0.0000      0.0000      0.0000      0.0000      0.0000      0.0000
        17         0.0000      0.0000      0.0000      0.0000      0.0000      0.0000
        18         0.1166      0.4348      0.0010      0.8472      0.0000      0.0000
        19        -0.3893      2.1840      0.0216     -1.0235      0.0000      0.0000
        20         0.0000      0.0000      0.0000      0.0000      0.0000      0.0000
        21         0.0000      0.0000      0.0000      0.0000      0.0000      0.0000
        22         0.0000      0.0000      0.0000      0.0000      0.0550      0.0699
        23         0.0000      0.0000      0.0000      0.0000      0.0000      0.0000
        24         0.0879      1.3837     -0.0033      1.6978      0.0000      0.0000
        25         0.1433     -3.4943     -0.0056      0.3911      0.0000      0.0000
        26         0.0000      0.0000      0.0000      0.0000      0.0000      0.0000
        27         0.0000      0.0000      0.0000      0.0000      0.0000      0.0000
        28         0.0000      0.0000      0.0000      0.0000     -0.0330     -0.3180
        29         0.1750      0.8420      0.0054      1.3415      0.0000      0.0000
        30         0.0000      0.0000      0.0000      0.0000      0.0000      0.0000
 <0|del|b> * <b|rxdel|0> + <0|del|b> * <b|delr+rdel|0>
 Rotatory Strengths (R) in cgs (10**-40 erg-esu-cm/Gauss)
       state          XX          YY          ZZ    R(velocity)    E-M Angle
         1         0.0000      0.0000      0.0000      0.0000       90.00
         2         0.0000      0.0000      0.0000      0.0000       90.00
         3         0.0000      0.0000      0.0000      0.0000       90.00
         4         0.0000      0.0000      0.0000      0.0000       90.00
         5         0.0000      0.0000      0.0000      0.0000       90.00
         6         0.0000      0.0000      0.0000      0.0000       90.00
         7         0.0000      0.0000      0.0000      0.0000       90.00
         8         0.0000      0.0000      0.0000      0.0000       90.00
         9         0.0000      0.0000      0.0000      0.0000       90.00
        10         0.0000      0.0000      0.0000      0.0000       90.00
        11         0.0000      0.0000      0.0000      0.0000       90.00
        12         0.0000      0.0000      0.0000      0.0000       90.00
        13         0.0000      0.0000      0.0000      0.0000       90.00
        14         0.0000      0.0000      0.0000      0.0000       90.00
        15         0.0000      0.0000      0.0000      0.0000       90.00
        16         0.0000      0.0000      0.0000      0.0000       90.00
        17         0.0000      0.0000      0.0000      0.0000       90.00
        18         0.0000      0.0000      0.0000      0.0000       90.00
        19         0.0000      0.0000      0.0000      0.0000       90.00
        20         0.0000      0.0000      0.0000      0.0000       90.00
        21         0.0000      0.0000      0.0000      0.0000       90.00
        22         0.0000      0.0000      0.0000      0.0000       90.00
        23         0.0000      0.0000      0.0000      0.0000       90.00
        24         0.0000      0.0000      0.0000      0.0000       90.00
        25         0.0000      0.0000      0.0000      0.0000       90.00
        26         0.0000      0.0000      0.0000      0.0000       90.00
        27         0.0000      0.0000      0.0000      0.0000       90.00
        28         0.0000      0.0000      0.0000      0.0000       90.00
        29         0.0000      0.0000      0.0000      0.0000       90.00
        30         0.0000      0.0000      0.0000      0.0000       90.00
 1/2[<0|r|b>*<b|rxdel|0> + (<0|rxdel|b>*<b|r|0>)*]
 Rotatory Strengths (R) in cgs (10**-40 erg-esu-cm/Gauss)
       state          XX          YY          ZZ     R(length)
         1         0.0000      0.0000      0.0000      0.0000
         2         0.0000      0.0000      0.0000      0.0000
         3         0.0000      0.0000      0.0000      0.0000
         4         0.0000      0.0000      0.0000      0.0000
         5         0.0000      0.0000      0.0000      0.0000
         6         0.0000      0.0000      0.0000      0.0000
         7         0.0000      0.0000      0.0000      0.0000
         8         0.0000      0.0000      0.0000      0.0000
         9         0.0000      0.0000      0.0000      0.0000
        10         0.0000      0.0000      0.0000      0.0000
        11         0.0000      0.0000      0.0000      0.0000
        12         0.0000      0.0000      0.0000      0.0000
        13         0.0000      0.0000      0.0000      0.0000
        14         0.0000      0.0000      0.0000      0.0000
        15         0.0000      0.0000      0.0000      0.0000
        16         0.0000      0.0000      0.0000      0.0000
        17         0.0000      0.0000      0.0000      0.0000
        18         0.0000      0.0000      0.0000      0.0000
        19         0.0000      0.0000      0.0000      0.0000
        20         0.0000      0.0000      0.0000      0.0000
        21         0.0000      0.0000      0.0000      0.0000
        22         0.0000      0.0000      0.0000      0.0000
        23         0.0000      0.0000      0.0000      0.0000
        24         0.0000      0.0000      0.0000      0.0000
        25         0.0000      0.0000      0.0000      0.0000
        26         0.0000      0.0000      0.0000      0.0000
        27         0.0000      0.0000      0.0000      0.0000
        28         0.0000      0.0000      0.0000      0.0000
        29         0.0000      0.0000      0.0000      0.0000
        30         0.0000      0.0000      0.0000      0.0000
  1/2[<0|del|b>*<b|r|0> + (<0|r|b>*<b|del|0>)*] (Au)
       state          X           Y           Z        Dip. S.   Osc.(frdel)
         1         0.0000      0.0000      0.0000      0.0000      0.0000
         2         0.0004     -0.4246      0.0000      0.4242      0.2828
         3         0.0000      0.0000     -0.0001      0.0001      0.0001
         4         0.0000      0.0000      0.0000      0.0000      0.0000
         5         0.0000      0.0000      0.0000      0.0000      0.0000
         6        -0.0491     -0.4906      0.0000      0.5398      0.3598
         7        -0.0005     -0.1204      0.0000      0.1209      0.0806
         8         0.0000      0.0000      0.0000      0.0000      0.0000
         9        -0.0062     -0.6959      0.0000      0.7021      0.4681
        10         0.0000      0.0000      0.0000      0.0000      0.0000
        11        -0.0822     -0.1918      0.0000      0.2740      0.1826
        12         0.0000      0.0000      0.0000      0.0000      0.0000
        13         0.0000      0.0000      0.0000      0.0000      0.0000
        14        -0.0167     -0.0152      0.0000      0.0319      0.0213
        15         0.0000      0.0000      0.0000      0.0000      0.0000
        16        -0.1139     -0.0688      0.0000      0.1827      0.1218
        17         0.0000      0.0000     -0.0051      0.0051      0.0034
        18         0.0000      0.0000      0.0000      0.0000      0.0000
        19         0.0000      0.0000      0.0000      0.0000      0.0000
        20        -0.1820     -0.0090      0.0000      0.1910      0.1273
        21         0.0000      0.0000     -0.0031      0.0031      0.0021
        22         0.0000      0.0000      0.0000      0.0000      0.0000
        23        -0.0659     -0.3308      0.0000      0.3967      0.2645
        24         0.0000      0.0000      0.0000      0.0000      0.0000
        25         0.0000      0.0000      0.0000      0.0000      0.0000
        26        -0.0045     -0.3393      0.0000      0.3437      0.2292
        27         0.0000      0.0000      0.0109     -0.0109     -0.0073
        28         0.0000      0.0000      0.0000      0.0000      0.0000
        29         0.0000      0.0000      0.0000      0.0000      0.0000
        30         0.0000      0.0000     -0.0022      0.0022      0.0015

 Excitation energies and oscillator strengths:
 
 Excited State   1:      Singlet-BG     2.6442 eV  468.89 nm  f=0.0000  <S**2>=0.000
      42 -> 50         0.24271
      42 -> 54         0.20763
      44 -> 49         0.60095
      44 -> 53        -0.11365
      44 -> 56        -0.11220
 This state for optimization and/or second-order correction.
 Total Energy, E(CIS/TDA) =  -138.310987581    
 Copying the excited state density for this state as the 1-particle RhoCI density.
 
 Excited State   2:      Singlet-BU     2.8719 eV  431.72 nm  f=0.4652  <S**2>=0.000
      48 -> 49         0.68618
 
 Excited State   3:      Singlet-AU     2.8769 eV  430.97 nm  f=0.0000  <S**2>=0.000
      42 -> 49         0.54960
      42 -> 53        -0.10159
      42 -> 56        -0.13395
      44 -> 50         0.30628
      44 -> 54         0.24869
 
 Excited State   4:      Singlet-AG     3.4831 eV  355.96 nm  f=0.0000  <S**2>=0.000
      46 -> 50        -0.12985
      47 -> 49         0.62790
      48 -> 50         0.23379
 
 Excited State   5:      Singlet-AG     4.1064 eV  301.93 nm  f=0.0000  <S**2>=0.000
      45 -> 49        -0.18180
      46 -> 52        -0.14391
      47 -> 49        -0.21513
      47 -> 51        -0.23017
      48 -> 50         0.55285
 
 Excited State   6:      Singlet-BU     4.1365 eV  299.73 nm  f=0.5383  <S**2>=0.000
      43 -> 49         0.29243
      45 -> 52         0.13050
      46 -> 49        -0.35100
      46 -> 51         0.17633
      47 -> 50         0.39162
      48 -> 51        -0.17389
      48 -> 53         0.18933
 
 Excited State   7:      Singlet-BU     4.3549 eV  284.70 nm  f=0.1281  <S**2>=0.000
      43 -> 49         0.14197
      45 -> 50        -0.20798
      46 -> 49         0.49987
      46 -> 51         0.11290
      47 -> 52         0.20346
      48 -> 51        -0.29584
 
 Excited State   8:      Singlet-AG     4.5504 eV  272.47 nm  f=0.0000  <S**2>=0.000
      43 -> 50        -0.25896
      45 -> 49         0.42595
      46 -> 52         0.13621
      47 -> 51         0.20814
      48 -> 50         0.24518
      48 -> 52        -0.24937
      48 -> 54         0.18505
 
 Excited State   9:      Singlet-BU     4.8972 eV  253.18 nm  f=0.7249  <S**2>=0.000
      45 -> 52         0.10503
      46 -> 49         0.24651
      46 -> 53        -0.10454
      47 -> 50         0.13625
      47 -> 52        -0.27812
      48 -> 51         0.37834
      48 -> 53         0.36838
 
 Excited State  10:      Singlet-AG     4.9569 eV  250.13 nm  f=0.0000  <S**2>=0.000
      43 -> 50        -0.10158
      43 -> 52         0.10920
      45 -> 49         0.11330
      45 -> 51         0.17295
      46 -> 50         0.21530
      47 -> 49         0.12124
      47 -> 53        -0.32147
      48 -> 52         0.44593
      48 -> 54         0.19366
 
 Excited State  11:      Singlet-BU     5.0614 eV  244.96 nm  f=0.3611  <S**2>=0.000
      43 -> 49         0.54721
      45 -> 50        -0.17410
      47 -> 50        -0.15221
      48 -> 51         0.23156
      48 -> 53        -0.23718
      48 -> 56         0.10790
 
 Excited State  12:      Singlet-AG     5.1327 eV  241.56 nm  f=0.0000  <S**2>=0.000
      45 -> 49         0.43666
      46 -> 50        -0.24909
      46 -> 52        -0.10695
      47 -> 51        -0.27579
      48 -> 52         0.25171
      48 -> 54        -0.20547
 
 Excited State  13:      Singlet-BG     5.1674 eV  239.93 nm  f=0.0000  <S**2>=0.000
      43 -> 55        -0.16663
      48 -> 55         0.62590
      48 -> 58         0.18224
      48 -> 64         0.10109
 
 Excited State  14:      Singlet-BU     5.5144 eV  224.84 nm  f=0.0659  <S**2>=0.000
      43 -> 49         0.15688
      43 -> 53        -0.19193
      45 -> 52        -0.15174
      46 -> 51        -0.23011
      47 -> 50        -0.27260
      47 -> 52        -0.10466
      48 -> 49         0.10321
      48 -> 51        -0.22463
      48 -> 53         0.38659
      48 -> 56        -0.18519
 
 Excited State  15:      Singlet-BG     5.5956 eV  221.57 nm  f=0.0000  <S**2>=0.000
      42 -> 50         0.39671
      42 -> 54         0.22098
      44 -> 49        -0.28521
      44 -> 51        -0.23280
      44 -> 53         0.13161
      44 -> 56        -0.32132
 
 Excited State  16:      Singlet-BU     5.7122 eV  217.05 nm  f=0.2376  <S**2>=0.000
      43 -> 49         0.12921
      43 -> 51         0.10216
      45 -> 50         0.18313
      45 -> 52        -0.17030
      46 -> 49         0.15668
      46 -> 51        -0.14742
      46 -> 53        -0.25569
      47 -> 50         0.29993
      47 -> 52        -0.23419
      47 -> 54         0.16596
      48 -> 51        -0.16743
      48 -> 53        -0.21173
      48 -> 56        -0.14348
 
 Excited State  17:      Singlet-AU     5.7650 eV  215.06 nm  f=0.0013  <S**2>=0.000
      42 -> 49        -0.36519
      42 -> 51        -0.15982
      42 -> 53         0.13104
      42 -> 56        -0.15745
      44 -> 50         0.51330
      44 -> 54         0.14964
 
 Excited State  18:      Singlet-AG     5.7759 eV  214.66 nm  f=0.0000  <S**2>=0.000
      43 -> 50        -0.10114
      43 -> 52        -0.13165
      45 -> 49        -0.18043
      45 -> 53         0.22980
      46 -> 50        -0.25264
      46 -> 52         0.31390
      47 -> 51         0.16000
      47 -> 53         0.24455
      48 -> 52         0.31988
 
 Excited State  19:      Singlet-AG     5.7983 eV  213.83 nm  f=0.0000  <S**2>=0.000
      43 -> 52        -0.13069
      45 -> 51        -0.27449
      46 -> 50        -0.21420
      46 -> 52        -0.18045
      48 -> 50        -0.16065
      48 -> 54         0.48331
      48 -> 59        -0.11601
 
 Excited State  20:      Singlet-BU     5.8801 eV  210.85 nm  f=0.2777  <S**2>=0.000
      43 -> 49         0.11126
      43 -> 51         0.31853
      45 -> 50         0.28296
      45 -> 52         0.24679
      46 -> 51         0.19015
      46 -> 53        -0.14414
      47 -> 50        -0.26196
      47 -> 54        -0.21710
      48 -> 51        -0.12164
 
 Excited State  21:      Singlet-AU     5.8836 eV  210.73 nm  f=0.0025  <S**2>=0.000
      46 -> 57        -0.13792
      47 -> 55         0.26646
      47 -> 58        -0.32376
      48 -> 57         0.50526
 
 Excited State  22:      Singlet-BG     5.8996 eV  210.16 nm  f=0.0000  <S**2>=0.000
      46 -> 55         0.10918
      47 -> 57        -0.39457
      48 -> 55        -0.13992
      48 -> 58         0.50342
      48 -> 62         0.12166
 
 Excited State  23:      Singlet-BU     5.9265 eV  209.20 nm  f=0.4147  <S**2>=0.000
      43 -> 53         0.13407
      45 -> 50        -0.14068
      46 -> 51        -0.17122
      46 -> 53        -0.15343
      47 -> 52        -0.20186
      47 -> 54        -0.23893
      48 -> 51        -0.20250
      48 -> 56         0.47771
 
 Excited State  24:      Singlet-AG     6.1282 eV  202.32 nm  f=0.0000  <S**2>=0.000
      43 -> 50         0.29515
      43 -> 52         0.26094
      45 -> 51         0.30525
      46 -> 50        -0.26511
      46 -> 52         0.15452
      46 -> 54        -0.12965
      47 -> 51        -0.17362
      47 -> 56        -0.16566
      48 -> 54         0.21003
 
 Excited State  25:      Singlet-AG     6.2570 eV  198.15 nm  f=0.0000  <S**2>=0.000
      43 -> 50         0.36162
      43 -> 52        -0.24331
      45 -> 49         0.13376
      45 -> 53        -0.26404
      46 -> 50         0.19281
      47 -> 51         0.20346
      47 -> 53         0.22880
      48 -> 54         0.17646
      48 -> 59        -0.11671
 
 Excited State  26:      Singlet-BU     6.2771 eV  197.52 nm  f=0.3422  <S**2>=0.000
      43 -> 51        -0.14309
      43 -> 53        -0.27874
      45 -> 50         0.32325
      45 -> 52        -0.23287
      46 -> 51         0.12423
      46 -> 53        -0.11734
      47 -> 52         0.29093
      48 -> 56         0.21654
      48 -> 60         0.11270
 
 Excited State  27:      Singlet-AU     6.3369 eV  195.65 nm  f=0.0163  <S**2>=0.000
      43 -> 57         0.13540
      45 -> 58         0.10591
      47 -> 55        -0.33626
      47 -> 58        -0.27339
      48 -> 61         0.41925
      48 -> 63        -0.13271
      48 -> 65        -0.18790
 
 Excited State  28:      Singlet-BG     6.4066 eV  193.53 nm  f=0.0000  <S**2>=0.000
      39 -> 50        -0.12554
      40 -> 49        -0.13418
      42 -> 50         0.14825
      42 -> 54        -0.26781
      42 -> 59         0.14498
      44 -> 49         0.18032
      44 -> 51        -0.17094
      44 -> 53         0.45210
      44 -> 60         0.18793
 
 Excited State  29:      Singlet-AG     6.4518 eV  192.17 nm  f=0.0000  <S**2>=0.000
      43 -> 50        -0.11776
      43 -> 52         0.13245
      43 -> 54        -0.12228
      45 -> 53         0.14800
      46 -> 50         0.21274
      46 -> 54         0.32753
      47 -> 49         0.11944
      47 -> 51        -0.28480
      47 -> 53         0.28906
      47 -> 56         0.11174
      48 -> 50        -0.13916
      48 -> 59        -0.11812
 
 Excited State  30:      Singlet-AU     6.4634 eV  191.82 nm  f=0.0018  <S**2>=0.000
      39 -> 49         0.18210
      40 -> 50         0.12417
      42 -> 49        -0.18821
      42 -> 53        -0.27386
      42 -> 56        -0.14815
      42 -> 60        -0.15635
      44 -> 50        -0.19939
      44 -> 52         0.22299
      44 -> 54         0.36125
      44 -> 59        -0.18713
 SavETr:  write IOETrn=   770 NScale= 10 NData=  16 NLR=1 NState=   30 LETran=     520.

 **********************************************************************

            Population analysis using the SCF density.

 **********************************************************************

 Orbital symmetries:
       Occupied  (AG) (BU) (AG) (BU) (BU) (AG) (AG) (BU) (AG) (BU)
                 (AG) (BU) (AG) (BU) (AG) (BU) (AG) (BU) (BU) (AG)
                 (BU) (AG) (AG) (BU) (AU) (AG) (BU) (AG) (BU) (BG)
                 (BU) (AG) (AG) (BU) (AG) (AU) (BG) (AU) (BU) (AG)
                 (BG) (BU) (AU) (AG) (BG) (AU) (BG) (AU)
       Virtual   (BG) (AU) (BG) (AU) (BG) (AU) (BU) (BG) (AG) (BU)
                 (AU) (BG) (AG) (BU) (AG) (BU) (AG) (BU) (BU) (AG)
                 (AG) (BU) (AG) (BU) (AG) (BU) (AG) (BU) (AG) (BU)
                 (AG) (AG) (BU) (BU) (AG) (BU) (AG) (BU) (AG) (BU)
                 (AG) (BU)
 The electronic state is 1-AG.
 Alpha  occ. eigenvalues --   -1.80586  -1.75627  -1.58426  -1.56644  -1.54642
 Alpha  occ. eigenvalues --   -1.50566  -1.26504  -1.25004  -1.23599  -1.16039
 Alpha  occ. eigenvalues --   -1.10460  -1.10006  -1.04374  -0.97212  -0.92077
 Alpha  occ. eigenvalues --   -0.90081  -0.86814  -0.84084  -0.74668  -0.74041
 Alpha  occ. eigenvalues --   -0.72031  -0.68503  -0.64888  -0.61644  -0.61558
 Alpha  occ. eigenvalues --   -0.60670  -0.60240  -0.59524  -0.58794  -0.57384
 Alpha  occ. eigenvalues --   -0.55633  -0.55440  -0.53714  -0.49810  -0.48975
 Alpha  occ. eigenvalues --   -0.48419  -0.47501  -0.46693  -0.46390  -0.45946
 Alpha  occ. eigenvalues --   -0.45437  -0.37327  -0.35598  -0.35336  -0.34972
 Alpha  occ. eigenvalues --   -0.34175  -0.31711  -0.28944
 Alpha virt. eigenvalues --   -0.05526  -0.00956   0.01488   0.01919   0.02754
 Alpha virt. eigenvalues --    0.05439   0.07346   0.08050   0.08770   0.08820
 Alpha virt. eigenvalues --    0.10445   0.10498   0.11515   0.12376   0.12663
 Alpha virt. eigenvalues --    0.13132   0.14088   0.17813   0.18847   0.19001
 Alpha virt. eigenvalues --    0.19515   0.19688   0.22309   0.22708   0.23019
 Alpha virt. eigenvalues --    0.27209   0.30396   0.30519   0.31721   0.34888
 Alpha virt. eigenvalues --    0.34976   0.37642   0.38434   0.39864   0.40521
 Alpha virt. eigenvalues --    0.42238   0.45330   0.45557   0.46116   0.49134
 Alpha virt. eigenvalues --    0.51247   0.54952
          Condensed to atoms (all electrons):
               1          2          3          4          5          6
     1  C    4.054878   0.000000   0.000000   0.000000   0.000000   0.000000
     2  C    0.000000   4.004083   0.000000   0.000000   0.000000   0.000000
     3  C    0.000000   0.000000   4.057016   0.000000   0.000000   0.000000
     4  C    0.000000   0.000000   0.000000   3.877848   0.000000   0.000000
     5  C    0.000000   0.000000   0.000000   0.000000   4.031680   0.000000
     6  C    0.000000   0.000000   0.000000   0.000000   0.000000   3.988939
     7  N    0.000000   0.000000   0.000000   0.000000   0.000000   0.000000
     8  C    0.000000   0.000000   0.000000   0.000000   0.000000   0.000000
     9  C    0.000000   0.000000   0.000000   0.000000   0.000000   0.000000
    10  O    0.000000   0.000000   0.000000   0.000000   0.000000   0.000000
    11  C    0.000000   0.000000   0.000000   0.000000   0.000000   0.000000
    12  C    0.000000   0.000000   0.000000   0.000000   0.000000   0.000000
    13  C    0.000000   0.000000   0.000000   0.000000   0.000000   0.000000
    14  C    0.000000   0.000000   0.000000   0.000000   0.000000   0.000000
    15  N    0.000000   0.000000   0.000000   0.000000   0.000000   0.000000
    16  O    0.000000   0.000000   0.000000   0.000000   0.000000   0.000000
    17  C    0.000000   0.000000   0.000000   0.000000   0.000000   0.000000
    18  C    0.000000   0.000000   0.000000   0.000000   0.000000   0.000000
    19  C    0.000000   0.000000   0.000000   0.000000   0.000000   0.000000
    20  C    0.000000   0.000000   0.000000   0.000000   0.000000   0.000000
    21  H    0.000000   0.000000   0.000000   0.000000   0.000000   0.000000
    22  H    0.000000   0.000000   0.000000   0.000000   0.000000   0.000000
    23  H    0.000000   0.000000   0.000000   0.000000   0.000000   0.000000
    24  H    0.000000   0.000000   0.000000   0.000000   0.000000   0.000000
    25  H    0.000000   0.000000   0.000000   0.000000   0.000000   0.000000
    26  H    0.000000   0.000000   0.000000   0.000000   0.000000   0.000000
    27  H    0.000000   0.000000   0.000000   0.000000   0.000000   0.000000
    28  H    0.000000   0.000000   0.000000   0.000000   0.000000   0.000000
    29  H    0.000000   0.000000   0.000000   0.000000   0.000000   0.000000
    30  H    0.000000   0.000000   0.000000   0.000000   0.000000   0.000000
               7          8          9         10         11         12
     1  C    0.000000   0.000000   0.000000   0.000000   0.000000   0.000000
     2  C    0.000000   0.000000   0.000000   0.000000   0.000000   0.000000
     3  C    0.000000   0.000000   0.000000   0.000000   0.000000   0.000000
     4  C    0.000000   0.000000   0.000000   0.000000   0.000000   0.000000
     5  C    0.000000   0.000000   0.000000   0.000000   0.000000   0.000000
     6  C    0.000000   0.000000   0.000000   0.000000   0.000000   0.000000
     7  N    5.225883   0.000000   0.000000   0.000000   0.000000   0.000000
     8  C    0.000000   3.900743   0.000000   0.000000   0.000000   0.000000
     9  C    0.000000   0.000000   3.683632   0.000000   0.000000   0.000000
    10  O    0.000000   0.000000   0.000000   6.525611   0.000000   0.000000
    11  C    0.000000   0.000000   0.000000   0.000000   3.900743   0.000000
    12  C    0.000000   0.000000   0.000000   0.000000   0.000000   3.683632
    13  C    0.000000   0.000000   0.000000   0.000000   0.000000   0.000000
    14  C    0.000000   0.000000   0.000000   0.000000   0.000000   0.000000
    15  N    0.000000   0.000000   0.000000   0.000000   0.000000   0.000000
    16  O    0.000000   0.000000   0.000000   0.000000   0.000000   0.000000
    17  C    0.000000   0.000000   0.000000   0.000000   0.000000   0.000000
    18  C    0.000000   0.000000   0.000000   0.000000   0.000000   0.000000
    19  C    0.000000   0.000000   0.000000   0.000000   0.000000   0.000000
    20  C    0.000000   0.000000   0.000000   0.000000   0.000000   0.000000
    21  H    0.000000   0.000000   0.000000   0.000000   0.000000   0.000000
    22  H    0.000000   0.000000   0.000000   0.000000   0.000000   0.000000
    23  H    0.000000   0.000000   0.000000   0.000000   0.000000   0.000000
    24  H    0.000000   0.000000   0.000000   0.000000   0.000000   0.000000
    25  H    0.000000   0.000000   0.000000   0.000000   0.000000   0.000000
    26  H    0.000000   0.000000   0.000000   0.000000   0.000000   0.000000
    27  H    0.000000   0.000000   0.000000   0.000000   0.000000   0.000000
    28  H    0.000000   0.000000   0.000000   0.000000   0.000000   0.000000
    29  H    0.000000   0.000000   0.000000   0.000000   0.000000   0.000000
    30  H    0.000000   0.000000   0.000000   0.000000   0.000000   0.000000
              13         14         15         16         17         18
     1  C    0.000000   0.000000   0.000000   0.000000   0.000000   0.000000
     2  C    0.000000   0.000000   0.000000   0.000000   0.000000   0.000000
     3  C    0.000000   0.000000   0.000000   0.000000   0.000000   0.000000
     4  C    0.000000   0.000000   0.000000   0.000000   0.000000   0.000000
     5  C    0.000000   0.000000   0.000000   0.000000   0.000000   0.000000
     6  C    0.000000   0.000000   0.000000   0.000000   0.000000   0.000000
     7  N    0.000000   0.000000   0.000000   0.000000   0.000000   0.000000
     8  C    0.000000   0.000000   0.000000   0.000000   0.000000   0.000000
     9  C    0.000000   0.000000   0.000000   0.000000   0.000000   0.000000
    10  O    0.000000   0.000000   0.000000   0.000000   0.000000   0.000000
    11  C    0.000000   0.000000   0.000000   0.000000   0.000000   0.000000
    12  C    0.000000   0.000000   0.000000   0.000000   0.000000   0.000000
    13  C    4.031680   0.000000   0.000000   0.000000   0.000000   0.000000
    14  C    0.000000   3.877848   0.000000   0.000000   0.000000   0.000000
    15  N    0.000000   0.000000   5.225883   0.000000   0.000000   0.000000
    16  O    0.000000   0.000000   0.000000   6.525611   0.000000   0.000000
    17  C    0.000000   0.000000   0.000000   0.000000   3.988939   0.000000
    18  C    0.000000   0.000000   0.000000   0.000000   0.000000   4.054878
    19  C    0.000000   0.000000   0.000000   0.000000   0.000000   0.000000
    20  C    0.000000   0.000000   0.000000   0.000000   0.000000   0.000000
    21  H    0.000000   0.000000   0.000000   0.000000   0.000000   0.000000
    22  H    0.000000   0.000000   0.000000   0.000000   0.000000   0.000000
    23  H    0.000000   0.000000   0.000000   0.000000   0.000000   0.000000
    24  H    0.000000   0.000000   0.000000   0.000000   0.000000   0.000000
    25  H    0.000000   0.000000   0.000000   0.000000   0.000000   0.000000
    26  H    0.000000   0.000000   0.000000   0.000000   0.000000   0.000000
    27  H    0.000000   0.000000   0.000000   0.000000   0.000000   0.000000
    28  H    0.000000   0.000000   0.000000   0.000000   0.000000   0.000000
    29  H    0.000000   0.000000   0.000000   0.000000   0.000000   0.000000
    30  H    0.000000   0.000000   0.000000   0.000000   0.000000   0.000000
              19         20         21         22         23         24
     1  C    0.000000   0.000000   0.000000   0.000000   0.000000   0.000000
     2  C    0.000000   0.000000   0.000000   0.000000   0.000000   0.000000
     3  C    0.000000   0.000000   0.000000   0.000000   0.000000   0.000000
     4  C    0.000000   0.000000   0.000000   0.000000   0.000000   0.000000
     5  C    0.000000   0.000000   0.000000   0.000000   0.000000   0.000000
     6  C    0.000000   0.000000   0.000000   0.000000   0.000000   0.000000
     7  N    0.000000   0.000000   0.000000   0.000000   0.000000   0.000000
     8  C    0.000000   0.000000   0.000000   0.000000   0.000000   0.000000
     9  C    0.000000   0.000000   0.000000   0.000000   0.000000   0.000000
    10  O    0.000000   0.000000   0.000000   0.000000   0.000000   0.000000
    11  C    0.000000   0.000000   0.000000   0.000000   0.000000   0.000000
    12  C    0.000000   0.000000   0.000000   0.000000   0.000000   0.000000
    13  C    0.000000   0.000000   0.000000   0.000000   0.000000   0.000000
    14  C    0.000000   0.000000   0.000000   0.000000   0.000000   0.000000
    15  N    0.000000   0.000000   0.000000   0.000000   0.000000   0.000000
    16  O    0.000000   0.000000   0.000000   0.000000   0.000000   0.000000
    17  C    0.000000   0.000000   0.000000   0.000000   0.000000   0.000000
    18  C    0.000000   0.000000   0.000000   0.000000   0.000000   0.000000
    19  C    4.004083   0.000000   0.000000   0.000000   0.000000   0.000000
    20  C    0.000000   4.057016   0.000000   0.000000   0.000000   0.000000
    21  H    0.000000   0.000000   0.964353   0.000000   0.000000   0.000000
    22  H    0.000000   0.000000   0.000000   0.963854   0.000000   0.000000
    23  H    0.000000   0.000000   0.000000   0.000000   0.959528   0.000000
    24  H    0.000000   0.000000   0.000000   0.000000   0.000000   0.950224
    25  H    0.000000   0.000000   0.000000   0.000000   0.000000   0.000000
    26  H    0.000000   0.000000   0.000000   0.000000   0.000000   0.000000
    27  H    0.000000   0.000000   0.000000   0.000000   0.000000   0.000000
    28  H    0.000000   0.000000   0.000000   0.000000   0.000000   0.000000
    29  H    0.000000   0.000000   0.000000   0.000000   0.000000   0.000000
    30  H    0.000000   0.000000   0.000000   0.000000   0.000000   0.000000
              25         26         27         28         29         30
     1  C    0.000000   0.000000   0.000000   0.000000   0.000000   0.000000
     2  C    0.000000   0.000000   0.000000   0.000000   0.000000   0.000000
     3  C    0.000000   0.000000   0.000000   0.000000   0.000000   0.000000
     4  C    0.000000   0.000000   0.000000   0.000000   0.000000   0.000000
     5  C    0.000000   0.000000   0.000000   0.000000   0.000000   0.000000
     6  C    0.000000   0.000000   0.000000   0.000000   0.000000   0.000000
     7  N    0.000000   0.000000   0.000000   0.000000   0.000000   0.000000
     8  C    0.000000   0.000000   0.000000   0.000000   0.000000   0.000000
     9  C    0.000000   0.000000   0.000000   0.000000   0.000000   0.000000
    10  O    0.000000   0.000000   0.000000   0.000000   0.000000   0.000000
    11  C    0.000000   0.000000   0.000000   0.000000   0.000000   0.000000
    12  C    0.000000   0.000000   0.000000   0.000000   0.000000   0.000000
    13  C    0.000000   0.000000   0.000000   0.000000   0.000000   0.000000
    14  C    0.000000   0.000000   0.000000   0.000000   0.000000   0.000000
    15  N    0.000000   0.000000   0.000000   0.000000   0.000000   0.000000
    16  O    0.000000   0.000000   0.000000   0.000000   0.000000   0.000000
    17  C    0.000000   0.000000   0.000000   0.000000   0.000000   0.000000
    18  C    0.000000   0.000000   0.000000   0.000000   0.000000   0.000000
    19  C    0.000000   0.000000   0.000000   0.000000   0.000000   0.000000
    20  C    0.000000   0.000000   0.000000   0.000000   0.000000   0.000000
    21  H    0.000000   0.000000   0.000000   0.000000   0.000000   0.000000
    22  H    0.000000   0.000000   0.000000   0.000000   0.000000   0.000000
    23  H    0.000000   0.000000   0.000000   0.000000   0.000000   0.000000
    24  H    0.000000   0.000000   0.000000   0.000000   0.000000   0.000000
    25  H    0.811727   0.000000   0.000000   0.000000   0.000000   0.000000
    26  H    0.000000   0.811727   0.000000   0.000000   0.000000   0.000000
    27  H    0.000000   0.000000   0.950224   0.000000   0.000000   0.000000
    28  H    0.000000   0.000000   0.000000   0.964353   0.000000   0.000000
    29  H    0.000000   0.000000   0.000000   0.000000   0.963854   0.000000
    30  H    0.000000   0.000000   0.000000   0.000000   0.000000   0.959528
 Mulliken charges:
               1
     1  C   -0.054878
     2  C   -0.004083
     3  C   -0.057016
     4  C    0.122152
     5  C   -0.031680
     6  C    0.011061
     7  N   -0.225883
     8  C    0.099257
     9  C    0.316368
    10  O   -0.525611
    11  C    0.099257
    12  C    0.316368
    13  C   -0.031680
    14  C    0.122152
    15  N   -0.225883
    16  O   -0.525611
    17  C    0.011061
    18  C   -0.054878
    19  C   -0.004083
    20  C   -0.057016
    21  H    0.035647
    22  H    0.036146
    23  H    0.040472
    24  H    0.049776
    25  H    0.188273
    26  H    0.188273
    27  H    0.049776
    28  H    0.035647
    29  H    0.036146
    30  H    0.040472
 Sum of Mulliken charges =   0.00000
 Mulliken charges with hydrogens summed into heavy atoms:
               1
     1  C   -0.019231
     2  C    0.032063
     3  C   -0.016544
     4  C    0.122152
     5  C   -0.031680
     6  C    0.060836
     7  N   -0.037609
     8  C    0.099257
     9  C    0.316368
    10  O   -0.525611
    11  C    0.099257
    12  C    0.316368
    13  C   -0.031680
    14  C    0.122152
    15  N   -0.037609
    16  O   -0.525611
    17  C    0.060836
    18  C   -0.019231
    19  C    0.032063
    20  C   -0.016544
 Charge=              0.0000 electrons
 Dipole moment (field-independent basis, Debye):
    X=              0.0000    Y=              0.0000    Z=              0.0000  Tot=              0.0000
 N-N= 5.299762855127D+02 E-N= 0.000000000000D+00  KE=-1.260794607521D+03
 Symmetry AG   KE=-5.014247641694D+02
 Symmetry BG   KE=-1.293892792241D+02
 Symmetry AU   KE=-1.577514864901D+02
 Symmetry BU   KE=-4.722290776379D+02
 1|1|UNPC-X500|SP|RZINDO CIS|STO-3G|C16H10N2O2|SOBEREVA|14-Aug-2017|0||
 # ZINDO(nstates=30)||[No Title]||0,1|C,0,-0.353538,5.306233,0.|C,0,1.0
 40155,5.154988,0.|C,0,1.650679,3.904003,0.|C,0,0.821817,2.78544,0.|C,0
 ,-0.582136,2.925858,0.|C,0,-1.174066,4.185385,0.|N,0,1.15943,1.446419,
 0.|C,0,0.022199,0.678223,0.|C,0,-1.15943,1.579913,0.|O,0,-2.328846,1.2
 05464,0.|C,0,-0.022199,-0.678223,0.|C,0,1.15943,-1.579913,0.|C,0,0.582
 136,-2.925858,0.|C,0,-0.821817,-2.78544,0.|N,0,-1.15943,-1.446419,0.|O
 ,0,2.328846,-1.205464,0.|C,0,1.174066,-4.185385,0.|C,0,0.353538,-5.306
 233,0.|C,0,-1.040155,-5.154988,0.|C,0,-1.650679,-3.904003,0.|H,0,-0.78
 645,6.301753,0.|H,0,1.668639,6.041735,0.|H,0,2.732436,3.807686,0.|H,0,
 -2.256986,4.27199,0.|H,0,2.08266,1.033816,0.|H,0,-2.08266,-1.033816,0.
 |H,0,2.256986,-4.27199,0.|H,0,0.78645,-6.301753,0.|H,0,-1.668639,-6.04
 1735,0.|H,0,-2.732436,-3.807686,0.||Version=IA32W-G16RevA.03|State=1-A
 G|HF=-138.4081613|RMSD=3.365e-009|PG=C02H [SGH(C16H10N2O2)]||@


 A MAN SHOULD NEVER BE ASHAMED TO OWN HE HAS BEEN IN THE WRONG
 WHICH IS BUT SAYING IN OTHER WORDS,
 THAT HE IS WISER TODAY THAN HE WAS YESTERDAY.

                          -- JONATHAN SWIFT
 Job cpu time:       0 days  0 hours  0 minutes 11.0 seconds.
 Elapsed time:       0 days  0 hours  0 minutes 10.0 seconds.
 File lengths (MBytes):  RWF=    227 Int=      0 D2E=      0 Chk=     14 Scr=      1
 Normal termination of Gaussian 16 at Mon Aug 14 18:34:01 2017.
