 Default is to use a total of   4 processors:
                                4 via shared-memory
                                1 via Linda
 Entering Link 1 = d:\study\G09W\l1.exe PID=      8892.
  
 Copyright (c) 1988,1990,1992,1993,1995,1998,2003,2009, Gaussian, Inc.
                  All Rights Reserved.
  
 This is part of the Gaussian(R) 09 program.  It is based on
 the Gaussian(R) 03 system (copyright 2003, Gaussian, Inc.),
 the Gaussian(R) 98 system (copyright 1998, Gaussian, Inc.),
 the Gaussian(R) 94 system (copyright 1995, Gaussian, Inc.),
 the Gaussian 92(TM) system (copyright 1992, Gaussian, Inc.),
 the Gaussian 90(TM) system (copyright 1990, Gaussian, Inc.),
 the Gaussian 88(TM) system (copyright 1988, Gaussian, Inc.),
 the Gaussian 86(TM) system (copyright 1986, Carnegie Mellon
 University), and the Gaussian 82(TM) system (copyright 1983,
 Carnegie Mellon University). Gaussian is a federally registered
 trademark of Gaussian, Inc.
  
 This software contains proprietary and confidential information,
 including trade secrets, belonging to Gaussian, Inc.
  
 This software is provided under written license and may be
 used, copied, transmitted, or stored only in accord with that
 written license.
  
 The following legend is applicable only to US Government
 contracts under FAR:
  
                    RESTRICTED RIGHTS LEGEND
  
 Use, reproduction and disclosure by the US Government is
 subject to restrictions as set forth in subparagraphs (a)
 and (c) of the Commercial Computer Software - Restricted
 Rights clause in FAR 52.227-19.
  
 Gaussian, Inc.
 340 Quinnipiac St., Bldg. 40, Wallingford CT 06492
  
  
 ---------------------------------------------------------------
 Warning -- This program may not be used in any manner that
 competes with the business of Gaussian, Inc. or will provide
 assistance to any competitor of Gaussian, Inc.  The licensee
 of this program is prohibited from giving any competitor of
 Gaussian, Inc. access to this program.  By using this program,
 the user acknowledges that Gaussian, Inc. is engaged in the
 business of creating and licensing software in the field of
 computational chemistry and represents and warrants to the
 licensee that it is not a competitor of Gaussian, Inc. and that
 it will not use this program in any manner prohibited above.
 ---------------------------------------------------------------
  

 Cite this work as:
 Gaussian 09, Revision A.02,
 M. J. Frisch, G. W. Trucks, H. B. Schlegel, G. E. Scuseria, 
 M. A. Robb, J. R. Cheeseman, G. Scalmani, V. Barone, B. Mennucci, 
 G. A. Petersson, H. Nakatsuji, M. Caricato, X. Li, H. P. Hratchian, 
 A. F. Izmaylov, J. Bloino, G. Zheng, J. L. Sonnenberg, M. Hada, 
 M. Ehara, K. Toyota, R. Fukuda, J. Hasegawa, M. Ishida, T. Nakajima, 
 Y. Honda, O. Kitao, H. Nakai, T. Vreven, J. A. Montgomery, Jr., 
 J. E. Peralta, F. Ogliaro, M. Bearpark, J. J. Heyd, E. Brothers, 
 K. N. Kudin, V. N. Staroverov, R. Kobayashi, J. Normand, 
 K. Raghavachari, A. Rendell, J. C. Burant, S. S. Iyengar, J. Tomasi, 
 M. Cossi, N. Rega, J. M. Millam, M. Klene, J. E. Knox, J. B. Cross, 
 V. Bakken, C. Adamo, J. Jaramillo, R. Gomperts, R. E. Stratmann, 
 O. Yazyev, A. J. Austin, R. Cammi, C. Pomelli, J. W. Ochterski, 
 R. L. Martin, K. Morokuma, V. G. Zakrzewski, G. A. Voth, 
 P. Salvador, J. J. Dannenberg, S. Dapprich, A. D. Daniels, 
 O. Farkas, J. B. Foresman, J. V. Ortiz, J. Cioslowski, 
 and D. J. Fox, Gaussian, Inc., Wallingford CT, 2009.
 
 ******************************************
 Gaussian 09:  IA32W-G09RevA.02 11-Jun-2009
                09-Feb-2014 
 ******************************************
 %chk=C:\gtest\DA_IRC.chk
 --------------------------------------------
 #p b3lyp/6-31+g(d) irc=(calcfc,maxpoints=18)
 --------------------------------------------
 1/10=4,14=-1,18=20,26=3,38=1,42=18,44=3/1,23;
 2/9=110,12=2,17=6,18=5,29=1,40=1/2;
 3/5=1,6=6,7=11,11=2,16=1,25=1,30=1,71=2,74=-5/1,2,3;
 4//1;
 5/5=2,38=5/2;
 8/6=4,10=90,11=11/1;
 11/6=1,8=1,9=11,15=111,16=1/1,2,10;
 10/6=1,7=6,13=1/2;
 6/7=2,8=2,9=2,10=2,28=1/1;
 7/10=1,18=20,25=1/1,2,3,16;
 1/10=4,14=-1,18=20,42=18,44=3/23(3);
 2/9=110,29=1/2;
 7/9=1,25=1,44=-1/16;
 99//99;
 2/9=110,29=1/2;
 3/5=1,6=6,7=11,11=2,16=1,25=1,30=1,71=2,74=-5/1,2,3;
 4/5=5,16=3/1;
 5/5=2,38=5/2;
 8/6=4,10=90,11=11/1;
 11/6=1,8=1,9=11,15=111,16=1/1,2,10;
 10/6=1,7=6,13=1/2;
 7/10=1,18=20,25=1/1,2,3,16;
 1/14=-1,18=20,42=18,44=3/23(-8);
 2/9=110,29=1/2;
 6/7=2,8=2,9=2,10=2,19=2,28=1/1;
 7/9=1,25=1,44=-1/16;
 99/9=1/99;
 Leave Link    1 at Sun Feb 09 14:06:20 2014, MaxMem=          0 cpu:       1.0
 (Enter d:\study\G09W\l101.exe)
 ------------
 DA adduction
 ------------
 Symbolic Z-matrix:
 Charge =  0 Multiplicity = 1
 C                    -0.26157   1.56679   0.6951 
 C                    -0.26157   1.56679  -0.6951 
 C                     0.50031  -0.43279  -1.43865 
 C                    -0.26157  -1.32827  -0.70392 
 C                    -0.26157  -1.32827   0.70392 
 H                    -1.19342   1.4469   -1.23752 
 H                    -1.19342   1.4469    1.23752 
 H                     0.52508   2.08588   1.23621 
 H                     0.38154  -0.37781   2.51848 
 H                     0.38154  -0.37781  -2.51848 
 H                     1.46468  -0.09644  -1.0741 
 H                    -1.04094  -1.89294  -1.21419 
 H                    -1.04094  -1.89294   1.21419 
 H                     1.46468  -0.09644   1.0741 
 H                     0.52508   2.08588  -1.23621 
 C                     0.50031  -0.43279   1.43865 
 
 NAtoms=     16 NQM=     16 NQMF=      0 NMic=      0 NMicF=      0 NTot=     16.
                    Isotopes and Nuclear Properties:
 (Nuclear quadrupole moments (NQMom) in fm**2, nuclear magnetic moments (NMagM)
  in nuclear magnetons)

  Atom         1           2           3           4           5           6           7           8           9          10
 IAtWgt=          12          12          12          12          12           1           1           1           1           1
 AtmWgt=  12.0000000  12.0000000  12.0000000  12.0000000  12.0000000   1.0078250   1.0078250   1.0078250   1.0078250   1.0078250
 NucSpn=           0           0           0           0           0           1           1           1           1           1
 AtZEff=   0.0000000   0.0000000   0.0000000   0.0000000   0.0000000   0.0000000   0.0000000   0.0000000   0.0000000   0.0000000
 NQMom=    0.0000000   0.0000000   0.0000000   0.0000000   0.0000000   0.0000000   0.0000000   0.0000000   0.0000000   0.0000000
 NMagM=    0.0000000   0.0000000   0.0000000   0.0000000   0.0000000   2.7928460   2.7928460   2.7928460   2.7928460   2.7928460

  Atom        11          12          13          14          15          16
 IAtWgt=           1           1           1           1           1          12
 AtmWgt=   1.0078250   1.0078250   1.0078250   1.0078250   1.0078250  12.0000000
 NucSpn=           1           1           1           1           1           0
 AtZEff=   0.0000000   0.0000000   0.0000000   0.0000000   0.0000000   0.0000000
 NQMom=    0.0000000   0.0000000   0.0000000   0.0000000   0.0000000   0.0000000
 NMagM=    2.7928460   2.7928460   2.7928460   2.7928460   2.7928460   0.0000000
 Leave Link  101 at Sun Feb 09 14:06:21 2014, MaxMem=  196608000 cpu:       0.0
 (Enter d:\study\G09W\l123.exe)
 IRC-IRC-IRC-IRC-IRC-IRC-IRC-IRC-IRC-IRC-IRC-IRC-IRC-IRC-IRC-IRC-IRC-IRC
 ------------------------------------------------------------------------
 INPUT DATA FOR L123
 ------------------------------------------------------------------------
 GENERAL PARAMETERS:
 Follow reaction path in both directions.
 Maximum points per path      =  18
 Step size                    =   0.100 bohr
 Integration scheme           = HPC                                 
    Redo corrector integration= Yes                                 
    Max correction cycles     =  20
 Initial Hessian              = CalcFC
 Hessian eveluation           = All updating
    Hessian updating method   = Bofill                              
 ------------------------------------------------------------------------
 IRC-IRC-IRC-IRC-IRC-IRC-IRC-IRC-IRC-IRC-IRC-IRC-IRC-IRC-IRC-IRC-IRC-IRC
 Leave Link  123 at Sun Feb 09 14:06:22 2014, MaxMem=  196608000 cpu:       0.0
 (Enter d:\study\G09W\l202.exe)
                          Input orientation:                          
 ---------------------------------------------------------------------
 Center     Atomic      Atomic             Coordinates (Angstroms)
 Number     Number       Type             X           Y           Z
 ---------------------------------------------------------------------
      1          6           0       -0.261568    1.566793    0.695096
      2          6           0       -0.261568    1.566793   -0.695096
      3          6           0        0.500314   -0.432793   -1.438645
      4          6           0       -0.261568   -1.328265   -0.703920
      5          6           0       -0.261568   -1.328265    0.703920
      6          1           0       -1.193416    1.446897   -1.237523
      7          1           0       -1.193416    1.446897    1.237523
      8          1           0        0.525076    2.085882    1.236213
      9          1           0        0.381544   -0.377812    2.518475
     10          1           0        0.381544   -0.377812   -2.518475
     11          1           0        1.464676   -0.096436   -1.074097
     12          1           0       -1.040944   -1.892940   -1.214187
     13          1           0       -1.040944   -1.892940    1.214187
     14          1           0        1.464676   -0.096436    1.074097
     15          1           0        0.525076    2.085882   -1.236213
     16          6           0        0.500314   -0.432793    1.438645
 ---------------------------------------------------------------------
                    Distance matrix (angstroms):
                    1          2          3          4          5
     1  C    0.000000
     2  C    1.390192   0.000000
     3  C    3.021863   2.265320   0.000000
     4  C    3.215370   2.895071   1.386418   0.000000
     5  C    2.895071   3.215370   2.443956   1.407840   0.000000
     6  H    2.148891   1.084870   2.538189   2.975667   3.512701
     7  H    1.084870   2.148891   3.682911   3.512701   2.975667
     8  H    1.086770   2.149004   3.674126   4.004913   3.543804
     9  H    2.742224   3.810790   3.959284   3.420641   2.146989
    10  H    3.810790   2.742224   1.087733   2.146989   3.420641
    11  H    2.979311   2.426910   1.084447   2.152755   2.767429
    12  H    4.027722   3.584220   2.134921   1.089338   2.146024
    13  H    3.584220   4.027722   3.397797   2.146024   1.089338
    14  H    2.426910   2.979311   2.712379   2.767429   2.152755
    15  H    2.149004   1.086770   2.526918   3.543804   4.004913
    16  C    2.265320   3.021863   2.877290   2.443956   1.386418
                    6          7          8          9         10
     6  H    0.000000
     7  H    2.475046   0.000000
     8  H    3.079105   1.833444   0.000000
     9  H    4.462912   2.729634   2.781112   0.000000
    10  H    2.729634   4.462912   4.493114   5.036950   0.000000
    11  H    3.077993   3.845896   3.314045   3.762834   1.827177
    12  H    3.343397   4.145919   4.928276   4.272218   2.453620
    13  H    4.145919   3.343397   4.275971   2.453620   4.272218
    14  H    3.845896   3.077993   2.381521   1.827177   3.762834
    15  H    1.833444   3.079105   2.472426   4.493114   2.781112
    16  C    3.682911   2.538189   2.526918   1.087733   3.959284
                   11         12         13         14         15
    11  H    0.000000
    12  H    3.086290   0.000000
    13  H    3.839505   2.428374   0.000000
    14  H    2.148194   3.839505   3.086290   0.000000
    15  H    2.381521   4.275971   4.928276   3.314045   0.000000
    16  C    2.712379   3.397797   2.134921   1.084447   3.674126
                   16
    16  C    0.000000
 Symmetry turned off by external request.
 Stoichiometry    C6H10
 Framework group  CS[X(C6H10)]
 Deg. of freedom    21
 Full point group                 CS      NOp   2
 Rotational constants (GHZ):      4.3293826      3.4679886      2.2580340
 Leave Link  202 at Sun Feb 09 14:06:22 2014, MaxMem=  196608000 cpu:       0.0
 (Enter d:\study\G09W\l301.exe)
 Standard basis: 6-31+G(d) (6D, 7F)
 Ernie: Thresh=  0.10000D-02 Tol=  0.10000D-05 Strict=F.
 Integral buffers will be    262144 words long.
 Raffenetti 2 integral format.
 Two-electron integral symmetry is turned off.
   134 basis functions,   232 primitive gaussians,   134 cartesian basis functions
    23 alpha electrons       23 beta electrons
       nuclear repulsion energy       223.8991074840 Hartrees.
 IExCor=  402 DFT=T Ex+Corr=B3LYP ExCW=0 ScaHFX=  0.200000
 ScaDFX=  0.800000  0.720000  1.000000  0.810000 ScalE2=  1.000000  1.000000
 IRadAn=      0 IRanWt=     -1 IRanGd=            0 ICorTp=0
 NAtoms=   16 NActive=   16 NUniq=   16 SFac= 7.50D-01 NAtFMM=   80 NAOKFM=F Big=F
 Leave Link  301 at Sun Feb 09 14:06:24 2014, MaxMem=  196608000 cpu:       0.0
 (Enter d:\study\G09W\l302.exe)
 NPDir=0 NMtPBC=     1 NCelOv=     1 NCel=       1 NClECP=     1 NCelD=      1
         NCelK=      1 NCelE2=     1 NClLst=     1 CellRange=     0.0.
 One-electron integrals computed using PRISM.
 NBasis=   134 RedAO= T  NBF=   134
 NBsUse=   134 1.00D-06 NBFU=   134
 Precomputing XC quadrature grid using
 IXCGrd= 2 IRadAn=           0 IRanWt=          -1 IRanGd=           0 AccXCQ= 1.00D-10.
 NRdTot=    1026 NPtTot=      129956 NUsed=      134745 NTot=      134761
 NSgBfM=   134   134   134   134   134 NAtAll=    16    16.
 Leave Link  302 at Sun Feb 09 14:06:24 2014, MaxMem=  196608000 cpu:       0.0
 (Enter d:\study\G09W\l303.exe)
 DipDrv:  MaxL=1.
 Leave Link  303 at Sun Feb 09 14:06:25 2014, MaxMem=  196608000 cpu:       0.0
 (Enter d:\study\G09W\l401.exe)
 Harris functional with IExCor=  402 diagonalized for initial guess.
 ExpMin= 4.38D-02 ExpMax= 3.05D+03 ExpMxC= 4.57D+02 IAcc=2 IRadAn=         0 AccDes= 0.00D+00
 HarFok:  IExCor=  402 AccDes= 0.00D+00 IRadAn=         0 IDoV= 1
 ScaDFX=  1.000000  1.000000  1.000000  1.000000
 FoFCou: FMM=F IPFlag=           0 FMFlag=      100000 FMFlg1=           0
         NFxFlg=           0 DoJE=T BraDBF=F KetDBF=T FulRan=T
         Omega=  0.000000  0.000000  1.000000  0.000000  0.000000 ICntrl=     500 IOpCl=  0
         NMat0=    1 NMatS0=    1 NMatT0=    0 NMatD0=    1 NMtDS0=    0 NMtDT0=    0
         I1Cent=           4 NGrid=           0.
 Symmetry not used in FoFCou.
 Harris En= -234.630305259332    
 Leave Link  401 at Sun Feb 09 14:06:28 2014, MaxMem=  196608000 cpu:       2.0
 (Enter d:\study\G09W\l502.exe)
 Closed shell SCF:
 Requested convergence on RMS density matrix=1.00D-08 within 128 cycles.
 Requested convergence on MAX density matrix=1.00D-06.
 Requested convergence on             energy=1.00D-06.
 No special actions if energy rises.
 Using DIIS extrapolation, IDIIS=  1040.
 Two-electron integral symmetry not used.
       134605 words used for storage of precomputed grid.
 Keep R1 ints in memory in canonical form, NReq=42339790.
 IEnd=      208166 IEndB=      208166 NGot=   196608000 MDV=   155524002
 LenX=   155524002 LenY=   155505605
 Symmetry not used in FoFDir.
 MinBra= 0 MaxBra= 2 Meth= 1.
 IRaf=       0 NMat=   1 IRICut=       1 DoRegI=T DoRafI=F ISym2E= 0 JSym2E=0.

 Cycle   1  Pass 1  IDiag  1:
 E= -234.345292689593    
 DIIS: error= 3.83D-02 at cycle   1 NSaved=   1.
 NSaved= 1 IEnMin= 1 EnMin= -234.345292689593     IErMin= 1 ErrMin= 3.83D-02
 ErrMax= 3.83D-02 EMaxC= 1.00D-01 BMatC= 1.79D-01 BMatP= 1.79D-01
 IDIUse=3 WtCom= 6.17D-01 WtEn= 3.83D-01
 Coeff-Com:  0.100D+01
 Coeff-En:   0.100D+01
 Coeff:      0.100D+01
 Gap=     0.212 Goal=   None    Shift=    0.000
 GapD=    0.212 DampG=1.000 DampE=0.500 DampFc=0.5000 IDamp=-1.
 Damping current iteration by 5.00D-01
 RMSDP=1.64D-02 MaxDP=3.37D-01              OVMax= 2.38D-01

 Cycle   2  Pass 1  IDiag  1:
 E= -234.431448535639     Delta-E=       -0.086155846045 Rises=F Damp=T
 DIIS: error= 6.99D-03 at cycle   2 NSaved=   2.
 NSaved= 2 IEnMin= 2 EnMin= -234.431448535639     IErMin= 2 ErrMin= 6.99D-03
 ErrMax= 6.99D-03 EMaxC= 1.00D-01 BMatC= 9.54D-03 BMatP= 1.79D-01
 IDIUse=3 WtCom= 9.30D-01 WtEn= 6.99D-02
 Coeff-Com:  0.887D-01 0.911D+00
 Coeff-En:   0.169D+00 0.831D+00
 Coeff:      0.943D-01 0.906D+00
 Gap=     0.235 Goal=   None    Shift=    0.000
 RMSDP=6.09D-03 MaxDP=1.97D-01 DE=-8.62D-02 OVMax= 1.52D-01

 Cycle   3  Pass 1  IDiag  1:
 E= -234.553250899237     Delta-E=       -0.121802363599 Rises=F Damp=F
 DIIS: error= 3.45D-03 at cycle   3 NSaved=   3.
 NSaved= 3 IEnMin= 3 EnMin= -234.553250899237     IErMin= 3 ErrMin= 3.45D-03
 ErrMax= 3.45D-03 EMaxC= 1.00D-01 BMatC= 1.77D-03 BMatP= 9.54D-03
 IDIUse=3 WtCom= 9.65D-01 WtEn= 3.45D-02
 Coeff-Com: -0.126D-01 0.260D+00 0.753D+00
 Coeff-En:   0.000D+00 0.000D+00 0.100D+01
 Coeff:     -0.122D-01 0.251D+00 0.761D+00
 Gap=     0.199 Goal=   None    Shift=    0.000
 RMSDP=1.43D-03 MaxDP=2.27D-02 DE=-1.22D-01 OVMax= 1.28D-02

 Cycle   4  Pass 1  IDiag  1:
 E= -234.554902852900     Delta-E=       -0.001651953663 Rises=F Damp=F
 DIIS: error= 1.01D-03 at cycle   4 NSaved=   4.
 NSaved= 4 IEnMin= 4 EnMin= -234.554902852900     IErMin= 4 ErrMin= 1.01D-03
 ErrMax= 1.01D-03 EMaxC= 1.00D-01 BMatC= 1.63D-04 BMatP= 1.77D-03
 IDIUse=3 WtCom= 9.90D-01 WtEn= 1.01D-02
 Coeff-Com: -0.990D-02 0.399D-01 0.261D+00 0.709D+00
 Coeff-En:   0.000D+00 0.000D+00 0.000D+00 0.100D+01
 Coeff:     -0.980D-02 0.395D-01 0.258D+00 0.712D+00
 Gap=     0.202 Goal=   None    Shift=    0.000
 RMSDP=4.06D-04 MaxDP=1.09D-02 DE=-1.65D-03 OVMax= 8.31D-03

 Cycle   5  Pass 1  IDiag  1:
 E= -234.555003495043     Delta-E=       -0.000100642143 Rises=F Damp=F
 DIIS: error= 6.07D-04 at cycle   5 NSaved=   5.
 NSaved= 5 IEnMin= 5 EnMin= -234.555003495043     IErMin= 5 ErrMin= 6.07D-04
 ErrMax= 6.07D-04 EMaxC= 1.00D-01 BMatC= 6.66D-05 BMatP= 1.63D-04
 IDIUse=3 WtCom= 9.94D-01 WtEn= 6.07D-03
 Coeff-Com: -0.555D-02 0.112D-01 0.119D+00 0.449D+00 0.426D+00
 Coeff-En:   0.000D+00 0.000D+00 0.000D+00 0.309D+00 0.691D+00
 Coeff:     -0.551D-02 0.111D-01 0.119D+00 0.448D+00 0.428D+00
 Gap=     0.201 Goal=   None    Shift=    0.000
 RMSDP=1.25D-04 MaxDP=2.03D-03 DE=-1.01D-04 OVMax= 3.99D-03

 Cycle   6  Pass 1  IDiag  1:
 E= -234.555084046200     Delta-E=       -0.000080551157 Rises=F Damp=F
 DIIS: error= 9.05D-05 at cycle   6 NSaved=   6.
 NSaved= 6 IEnMin= 6 EnMin= -234.555084046200     IErMin= 6 ErrMin= 9.05D-05
 ErrMax= 9.05D-05 EMaxC= 1.00D-01 BMatC= 1.34D-06 BMatP= 6.66D-05
 IDIUse=1 WtCom= 1.00D+00 WtEn= 0.00D+00
 Coeff-Com: -0.199D-02 0.271D-02 0.402D-01 0.172D+00 0.199D+00 0.589D+00
 Coeff:     -0.199D-02 0.271D-02 0.402D-01 0.172D+00 0.199D+00 0.589D+00
 Gap=     0.201 Goal=   None    Shift=    0.000
 RMSDP=1.77D-05 MaxDP=2.48D-04 DE=-8.06D-05 OVMax= 7.86D-04

 Cycle   7  Pass 1  IDiag  1:
 E= -234.555085134251     Delta-E=       -0.000001088051 Rises=F Damp=F
 DIIS: error= 5.07D-05 at cycle   7 NSaved=   7.
 NSaved= 7 IEnMin= 7 EnMin= -234.555085134251     IErMin= 7 ErrMin= 5.07D-05
 ErrMax= 5.07D-05 EMaxC= 1.00D-01 BMatC= 3.64D-07 BMatP= 1.34D-06
 IDIUse=1 WtCom= 1.00D+00 WtEn= 0.00D+00
 Coeff-Com: -0.452D-03 0.231D-03 0.849D-02 0.446D-01 0.653D-01 0.373D+00
 Coeff-Com:  0.508D+00
 Coeff:     -0.452D-03 0.231D-03 0.849D-02 0.446D-01 0.653D-01 0.373D+00
 Coeff:      0.508D+00
 Gap=     0.201 Goal=   None    Shift=    0.000
 RMSDP=1.07D-05 MaxDP=1.96D-04 DE=-1.09D-06 OVMax= 2.85D-04

 Cycle   8  Pass 1  IDiag  1:
 E= -234.555085538211     Delta-E=       -0.000000403960 Rises=F Damp=F
 DIIS: error= 5.22D-06 at cycle   8 NSaved=   8.
 NSaved= 8 IEnMin= 8 EnMin= -234.555085538211     IErMin= 8 ErrMin= 5.22D-06
 ErrMax= 5.22D-06 EMaxC= 1.00D-01 BMatC= 5.42D-09 BMatP= 3.64D-07
 IDIUse=1 WtCom= 1.00D+00 WtEn= 0.00D+00
 Coeff-Com:  0.292D-04-0.158D-03-0.785D-03-0.764D-03 0.257D-02 0.534D-01
 Coeff-Com:  0.158D+00 0.788D+00
 Coeff:      0.292D-04-0.158D-03-0.785D-03-0.764D-03 0.257D-02 0.534D-01
 Coeff:      0.158D+00 0.788D+00
 Gap=     0.201 Goal=   None    Shift=    0.000
 RMSDP=1.67D-06 MaxDP=4.76D-05 DE=-4.04D-07 OVMax= 3.61D-05

 Cycle   9  Pass 1  IDiag  1:
 E= -234.555085544538     Delta-E=       -0.000000006327 Rises=F Damp=F
 DIIS: error= 4.22D-07 at cycle   9 NSaved=   9.
 NSaved= 9 IEnMin= 9 EnMin= -234.555085544538     IErMin= 9 ErrMin= 4.22D-07
 ErrMax= 4.22D-07 EMaxC= 1.00D-01 BMatC= 3.90D-11 BMatP= 5.42D-09
 IDIUse=1 WtCom= 1.00D+00 WtEn= 0.00D+00
 Coeff-Com:  0.924D-05-0.230D-04-0.285D-03-0.861D-03-0.831D-03 0.183D-02
 Coeff-Com:  0.171D-01 0.123D+00 0.860D+00
 Coeff:      0.924D-05-0.230D-04-0.285D-03-0.861D-03-0.831D-03 0.183D-02
 Coeff:      0.171D-01 0.123D+00 0.860D+00
 Gap=     0.201 Goal=   None    Shift=    0.000
 RMSDP=3.40D-07 MaxDP=8.07D-06 DE=-6.33D-09 OVMax= 2.47D-06

 Cycle  10  Pass 1  IDiag  1:
 E= -234.555085544587     Delta-E=       -0.000000000049 Rises=F Damp=F
 DIIS: error= 1.10D-07 at cycle  10 NSaved=  10.
 NSaved=10 IEnMin=10 EnMin= -234.555085544587     IErMin=10 ErrMin= 1.10D-07
 ErrMax= 1.10D-07 EMaxC= 1.00D-01 BMatC= 1.93D-12 BMatP= 3.90D-11
 IDIUse=1 WtCom= 1.00D+00 WtEn= 0.00D+00
 Coeff-Com:  0.344D-06 0.377D-06-0.423D-04-0.155D-03-0.228D-03-0.887D-03
 Coeff-Com: -0.478D-03 0.516D-02 0.192D+00 0.804D+00
 Coeff:      0.344D-06 0.377D-06-0.423D-04-0.155D-03-0.228D-03-0.887D-03
 Coeff:     -0.478D-03 0.516D-02 0.192D+00 0.804D+00
 Gap=     0.201 Goal=   None    Shift=    0.000
 RMSDP=6.68D-08 MaxDP=1.48D-06 DE=-4.89D-11 OVMax= 3.70D-07

 Cycle  11  Pass 1  IDiag  1:
 E= -234.555085544589     Delta-E=       -0.000000000002 Rises=F Damp=F
 DIIS: error= 1.95D-08 at cycle  11 NSaved=  11.
 NSaved=11 IEnMin=11 EnMin= -234.555085544589     IErMin=11 ErrMin= 1.95D-08
 ErrMax= 1.95D-08 EMaxC= 1.00D-01 BMatC= 6.97D-14 BMatP= 1.93D-12
 IDIUse=1 WtCom= 1.00D+00 WtEn= 0.00D+00
 Coeff-Com: -0.227D-06 0.718D-06-0.482D-05-0.214D-04-0.446D-04-0.269D-03
 Coeff-Com: -0.480D-03-0.149D-02 0.283D-01 0.207D+00 0.767D+00
 Coeff:     -0.227D-06 0.718D-06-0.482D-05-0.214D-04-0.446D-04-0.269D-03
 Coeff:     -0.480D-03-0.149D-02 0.283D-01 0.207D+00 0.767D+00
 Gap=     0.201 Goal=   None    Shift=    0.000
 RMSDP=1.66D-08 MaxDP=2.84D-07 DE=-2.16D-12 OVMax= 9.57D-08

 Cycle  12  Pass 1  IDiag  1:
 E= -234.555085544590     Delta-E=       -0.000000000001 Rises=F Damp=F
 DIIS: error= 5.98D-09 at cycle  12 NSaved=  12.
 NSaved=12 IEnMin=12 EnMin= -234.555085544590     IErMin=12 ErrMin= 5.98D-09
 ErrMax= 5.98D-09 EMaxC= 1.00D-01 BMatC= 3.41D-15 BMatP= 6.97D-14
 IDIUse=1 WtCom= 1.00D+00 WtEn= 0.00D+00
 Coeff-Com: -0.782D-07 0.161D-06 0.101D-05 0.234D-05-0.935D-06-0.153D-04
 Coeff-Com: -0.959D-04-0.697D-03-0.472D-02 0.155D-02 0.175D+00 0.829D+00
 Coeff:     -0.782D-07 0.161D-06 0.101D-05 0.234D-05-0.935D-06-0.153D-04
 Coeff:     -0.959D-04-0.697D-03-0.472D-02 0.155D-02 0.175D+00 0.829D+00
 Gap=     0.201 Goal=   None    Shift=    0.000
 RMSDP=1.83D-09 MaxDP=2.77D-08 DE=-9.09D-13 OVMax= 2.09D-08

 SCF Done:  E(RB3LYP) =  -234.555085545     A.U. after   12 cycles
             Convg  =    0.1826D-08             -V/T =  2.0105
 KE= 2.321108315127D+02 PE=-9.894528619391D+02 EE= 2.988878373978D+02
 Leave Link  502 at Sun Feb 09 14:06:45 2014, MaxMem=  196608000 cpu:      16.0
 (Enter d:\study\G09W\l801.exe)
 Range of M.O.s used for correlation:     1   134
 NBasis=   134 NAE=    23 NBE=    23 NFC=     0 NFV=     0
 NROrb=    134 NOA=    23 NOB=    23 NVA=   111 NVB=   111

 **** Warning!!: The largest alpha MO coefficient is  0.58067063D+02

 Leave Link  801 at Sun Feb 09 14:06:46 2014, MaxMem=  196608000 cpu:       0.0
 (Enter d:\study\G09W\l1101.exe)
 Using compressed storage, NAtomX=    16.
 Will process  17 centers per pass.
 Leave Link 1101 at Sun Feb 09 14:06:47 2014, MaxMem=  196608000 cpu:       0.0
 (Enter d:\study\G09W\l1102.exe)
 Symmetrizing basis deriv contribution to polar:
 IMax=3 JMax=2 DiffMx= 0.00D+00
 Leave Link 1102 at Sun Feb 09 14:06:48 2014, MaxMem=  196608000 cpu:       0.0
 (Enter d:\study\G09W\l1110.exe)
 Forming Gx(P) for the SCF density, NAtomX=    16.
 Integral derivatives from FoFDir/FoFCou, PRISM(SPDF).
 Do as many integral derivatives as possible in FoFDir.
 G2DrvN: MDV=     196607850.
 G2DrvN: will do    17 centers at a time, making    1 passes doing MaxLOS=2.
 Calling FoFCou, ICntrl=  3107 FMM=F I1Cent=   0 AccDes= 0.00D+00.
 FoFCou: FMM=F IPFlag=           0 FMFlag=      100000 FMFlg1=           0
         NFxFlg=           0 DoJE=F BraDBF=F KetDBF=F FulRan=T
         Omega=  0.000000  0.000000  1.000000  0.000000  0.000000 ICntrl=    3107 IOpCl=  0
         NMat0=    1 NMatS0=    1 NMatT0=    0 NMatD0=    1 NMtDS0=    0 NMtDT0=    0
         I1Cent=           0 NGrid=           0.
 Symmetry not used in FoFCou.
 FoFDir/FoFCou used for L=0 through L=2.
 End of G2Drv Frequency-dependent properties file   721 does not exist.
 End of G2Drv Frequency-dependent properties file   722 does not exist.
 Leave Link 1110 at Sun Feb 09 14:07:28 2014, MaxMem=  196608000 cpu:      39.0
 (Enter d:\study\G09W\l1002.exe)
 Minotr:  Closed shell wavefunction.
          IDoAtm=1111111111111111
          Direct CPHF calculation.
          Differentiating once with respect to nuclear coordinates.
          Requested convergence is 1.0D-06 RMS, and 1.0D-05 maximum.
          Secondary convergence is 1.0D-12 RMS, and 1.0D-12 maximum.
          NewPWx=T KeepS1=F KeepF1=F KeepIn=T MapXYZ=F SortEE=F KeepMc=T.
          MDV=     196607884 using IRadAn=       2.
 Generate precomputed XC quadrature information.
          Keep R1 ints in memory in canonical form, NReq=41733610.
 Symmetry not used in FoFDir.
 MinBra= 0 MaxBra= 2 Meth= 1.
 IRaf=       0 NMat=   1 IRICut=       1 DoRegI=T DoRafI=F ISym2E= 0 JSym2E=0.
          Solving linear equations simultaneously, MaxMat=       0.
          There are    51 degrees of freedom in the 1st order CPHF.  IDoFFX=5.
     45 vectors produced by pass  0 Test12= 5.01D-11 1.96D-07 XBig12= 1.41D-01 1.72D-01.
 AX will form    45 AO Fock derivatives at one time.
     45 vectors produced by pass  1 Test12= 5.01D-11 1.96D-07 XBig12= 2.78D-02 5.79D-02.
     45 vectors produced by pass  2 Test12= 5.01D-11 1.96D-07 XBig12= 8.80D-05 1.91D-03.
     45 vectors produced by pass  3 Test12= 5.01D-11 1.96D-07 XBig12= 2.48D-07 7.91D-05.
     18 vectors produced by pass  4 Test12= 5.01D-11 1.96D-07 XBig12= 1.81D-10 2.15D-06.
 Inverted reduced A of dimension   198 with in-core refinement.
 End of Minotr Frequency-dependent properties file   721 does not exist.
 End of Minotr Frequency-dependent properties file   722 does not exist.
 Leave Link 1002 at Sun Feb 09 14:08:12 2014, MaxMem=  196608000 cpu:      43.0
 (Enter d:\study\G09W\l601.exe)
 Copying SCF densities to generalized density rwf, IOpCl= 0 IROHF=0.

 **********************************************************************

            Population analysis using the SCF density.

 **********************************************************************

 Alpha  occ. eigenvalues --  -10.19613 -10.19611 -10.19195 -10.19137 -10.18700
 Alpha  occ. eigenvalues --  -10.18649  -0.81080  -0.74913  -0.72071  -0.62679
 Alpha  occ. eigenvalues --   -0.58519  -0.52394  -0.49418  -0.46768  -0.43122
 Alpha  occ. eigenvalues --   -0.41080  -0.40907  -0.37075  -0.35996  -0.34663
 Alpha  occ. eigenvalues --   -0.34544  -0.23230  -0.22997
 Alpha virt. eigenvalues --   -0.02921  -0.00343   0.01230   0.02306   0.02470
 Alpha virt. eigenvalues --    0.04373   0.04812   0.05764   0.06349   0.06708
 Alpha virt. eigenvalues --    0.07725   0.09402   0.10026   0.10104   0.11131
 Alpha virt. eigenvalues --    0.11203   0.11422   0.12796   0.13175   0.15144
 Alpha virt. eigenvalues --    0.15247   0.16555   0.17259   0.17936   0.19499
 Alpha virt. eigenvalues --    0.20224   0.20896   0.21325   0.22150   0.26897
 Alpha virt. eigenvalues --    0.27594   0.30457   0.30466   0.31864   0.32561
 Alpha virt. eigenvalues --    0.33528   0.34387   0.35509   0.40154   0.43317
 Alpha virt. eigenvalues --    0.44373   0.55093   0.60477   0.63720   0.67114
 Alpha virt. eigenvalues --    0.68094   0.70803   0.72801   0.73749   0.73784
 Alpha virt. eigenvalues --    0.76217   0.78986   0.80033   0.80986   0.84123
 Alpha virt. eigenvalues --    0.87936   0.90750   0.93952   0.94620   0.94930
 Alpha virt. eigenvalues --    0.98249   0.99610   1.04719   1.07204   1.07808
 Alpha virt. eigenvalues --    1.08268   1.12145   1.12460   1.15521   1.15676
 Alpha virt. eigenvalues --    1.20983   1.27010   1.29758   1.39406   1.41009
 Alpha virt. eigenvalues --    1.49070   1.52544   1.60322   1.61200   1.73823
 Alpha virt. eigenvalues --    1.76900   1.82503   1.93089   1.94906   1.97497
 Alpha virt. eigenvalues --    1.99623   2.01609   2.05704   2.08902   2.11419
 Alpha virt. eigenvalues --    2.14363   2.20663   2.21067   2.25630   2.27582
 Alpha virt. eigenvalues --    2.29959   2.42317   2.52555   2.58128   2.61343
 Alpha virt. eigenvalues --    2.62024   2.66266   2.72676   2.87141   3.04907
 Alpha virt. eigenvalues --    4.17986   4.25843   4.31788   4.34344   4.49645
 Alpha virt. eigenvalues --    4.55398
          Condensed to atoms (all electrons):
              1          2          3          4          5          6
     1  C    5.978242  -0.116118  -0.251727  -0.049808  -0.112355  -0.032691
     2  C   -0.116118   5.978242   0.344499  -0.112355  -0.049808   0.378272
     3  C   -0.251727   0.344499   5.820981   0.272907   0.000152  -0.021341
     4  C   -0.049808  -0.112355   0.272907   5.235782   0.374287  -0.000999
     5  C   -0.112355  -0.049808   0.000152   0.374287   5.235782  -0.000958
     6  H   -0.032691   0.378272  -0.021341  -0.000999  -0.000958   0.498439
     7  H    0.378272  -0.032691   0.004304  -0.000958  -0.000999  -0.006518
     8  H    0.400819  -0.054561   0.013867   0.002903   0.002784   0.003765
     9  H   -0.026817   0.011762   0.006004   0.021054  -0.037581  -0.000024
    10  H    0.011762  -0.026817   0.361584  -0.037581   0.021054  -0.000747
    11  H   -0.016505  -0.023905   0.425206  -0.095216   0.039946   0.000999
    12  H   -0.006422   0.009540  -0.033981   0.326414  -0.005106   0.000202
    13  H    0.009540  -0.006422  -0.005055  -0.005106   0.326414   0.000002
    14  H   -0.023905  -0.016505  -0.025921   0.039946  -0.095216  -0.000025
    15  H   -0.054561   0.400819  -0.040785   0.002784   0.002903  -0.033285
    16  C    0.344499  -0.251727  -0.290776   0.000152   0.272907   0.004304
              7          8          9         10         11         12
     1  C    0.378272   0.400819  -0.026817   0.011762  -0.016505  -0.006422
     2  C   -0.032691  -0.054561   0.011762  -0.026817  -0.023905   0.009540
     3  C    0.004304   0.013867   0.006004   0.361584   0.425206  -0.033981
     4  C   -0.000958   0.002903   0.021054  -0.037581  -0.095216   0.326414
     5  C   -0.000999   0.002784  -0.037581   0.021054   0.039946  -0.005106
     6  H   -0.006518   0.003765  -0.000024  -0.000747   0.000999   0.000202
     7  H    0.498439  -0.033285  -0.000747  -0.000024  -0.000025   0.000002
     8  H   -0.033285   0.508370   0.000533  -0.000031   0.000395   0.000005
     9  H   -0.000747   0.000533   0.510461  -0.000007   0.000016  -0.000125
    10  H   -0.000024  -0.000031  -0.000007   0.510461  -0.035607  -0.005896
    11  H   -0.000025   0.000395   0.000016  -0.035607   0.520921   0.004500
    12  H    0.000002   0.000005  -0.000125  -0.005896   0.004500   0.551567
    13  H    0.000202  -0.000042  -0.005896  -0.000125  -0.000021  -0.007448
    14  H    0.000999  -0.003322  -0.035607   0.000016   0.005329  -0.000021
    15  H    0.003765  -0.006658  -0.000031   0.000533  -0.003322  -0.000042
    16  C   -0.021341  -0.040785   0.361584   0.006004  -0.025921  -0.005055
             13         14         15         16
     1  C    0.009540  -0.023905  -0.054561   0.344499
     2  C   -0.006422  -0.016505   0.400819  -0.251727
     3  C   -0.005055  -0.025921  -0.040785  -0.290776
     4  C   -0.005106   0.039946   0.002784   0.000152
     5  C    0.326414  -0.095216   0.002903   0.272907
     6  H    0.000002  -0.000025  -0.033285   0.004304
     7  H    0.000202   0.000999   0.003765  -0.021341
     8  H   -0.000042  -0.003322  -0.006658  -0.040785
     9  H   -0.005896  -0.035607  -0.000031   0.361584
    10  H   -0.000125   0.000016   0.000533   0.006004
    11  H   -0.000021   0.005329  -0.003322  -0.025921
    12  H   -0.007448  -0.000021  -0.000042  -0.005055
    13  H    0.551567   0.004500   0.000005  -0.033981
    14  H    0.004500   0.520921   0.000395   0.425206
    15  H    0.000005   0.000395   0.508370   0.013867
    16  C   -0.033981   0.425206   0.013867   5.820981
 Mulliken atomic charges:
              1
     1  C   -0.432223
     2  C   -0.432223
     3  C   -0.579917
     4  C    0.025792
     5  C    0.025792
     6  H    0.210605
     7  H    0.210605
     8  H    0.205244
     9  H    0.195421
    10  H    0.195421
    11  H    0.203210
    12  H    0.171867
    13  H    0.171867
    14  H    0.203210
    15  H    0.205244
    16  C   -0.579917
 Sum of Mulliken atomic charges =   0.00000
 Mulliken charges with hydrogens summed into heavy atoms:
              1
     1  C   -0.016373
     2  C   -0.016373
     3  C   -0.181286
     4  C    0.197659
     5  C    0.197659
    16  C   -0.181286
 Sum of Mulliken charges with hydrogens summed into heavy atoms =   0.00000
 APT atomic charges:
              1
     1  C   -0.950435
     2  C   -0.950435
     3  C   -0.916187
     4  C   -0.475657
     5  C   -0.475657
     6  H    0.429021
     7  H    0.429021
     8  H    0.489974
     9  H    0.553341
    10  H    0.553341
    11  H    0.354598
    12  H    0.515345
    13  H    0.515345
    14  H    0.354598
    15  H    0.489974
    16  C   -0.916187
 Sum of APT charges=   0.00000
 APT Atomic charges with hydrogens summed into heavy atoms:
              1
     1  C   -0.031440
     2  C   -0.031440
     3  C   -0.008248
     4  C    0.039688
     5  C    0.039688
     6  H    0.000000
     7  H    0.000000
     8  H    0.000000
     9  H    0.000000
    10  H    0.000000
    11  H    0.000000
    12  H    0.000000
    13  H    0.000000
    14  H    0.000000
    15  H    0.000000
    16  C   -0.008248
 Sum of APT charges=   0.00000
 Electronic spatial extent (au):  <R**2>=            618.6040
 Charge=              0.0000 electrons
 Dipole moment (field-independent basis, Debye):
    X=             -0.0551    Y=              0.4898    Z=              0.0000  Tot=              0.4929
 Quadrupole moment (field-independent basis, Debye-Ang):
   XX=            -37.9975   YY=            -43.2038   ZZ=            -36.7394
   XY=              3.4410   XZ=              0.0000   YZ=              0.0000
 Traceless Quadrupole moment (field-independent basis, Debye-Ang):
   XX=              1.3161   YY=             -3.8902   ZZ=              2.5742
   XY=              3.4410   XZ=              0.0000   YZ=              0.0000
 Octapole moment (field-independent basis, Debye-Ang**2):
  XXX=              0.0701  YYY=             -1.4828  ZZZ=              0.0000  XYY=             -1.9919
  XXY=              1.4938  XXZ=              0.0000  XZZ=             -1.9067  YZZ=              1.8133
  YYZ=              0.0000  XYZ=              0.0000
 Hexadecapole moment (field-independent basis, Debye-Ang**3):
 XXXX=           -113.3008 YYYY=           -469.1878 ZZZZ=           -329.7659 XXXY=              8.6918
 XXXZ=              0.0000 YYYX=             28.0558 YYYZ=              0.0000 ZZZX=              0.0000
 ZZZY=              0.0000 XXYY=            -90.1422 XXZZ=            -77.3954 YYZZ=           -131.1114
 XXYZ=              0.0000 YYXZ=              0.0000 ZZXY=              7.6680
 N-N= 2.238991074840D+02 E-N=-9.894528617533D+02  KE= 2.321108315127D+02
  Exact polarizability:   0.000   0.000   0.000   0.000   0.000   0.000
 Approx polarizability:  86.374   2.544 155.711   0.000   0.000 147.594
 No NMR shielding tensors so no spin-rotation constants.
 Leave Link  601 at Sun Feb 09 14:08:13 2014, MaxMem=  196608000 cpu:       0.0
 (Enter d:\study\G09W\l701.exe)
 Compute integral second derivatives.
 ... and contract with generalized density number  0.
 Leave Link  701 at Sun Feb 09 14:08:15 2014, MaxMem=  196608000 cpu:       1.0
 (Enter d:\study\G09W\l702.exe)
 L702 exits ... SP integral derivatives will be done elsewhere.
 Leave Link  702 at Sun Feb 09 14:08:16 2014, MaxMem=  196608000 cpu:       0.0
 (Enter d:\study\G09W\l703.exe)
 Compute integral second derivatives, UseDBF=F ICtDFT=           0.
 Integral derivatives from FoFDir, PRISM(SPDF).
 Calling FoFJK, ICntrl=    100147 FMM=F ISym2X=0 I1Cent= 0 IOpClX= 0 NMat=1 NMatS=1 NMatT=0.
 FoFCou: FMM=F IPFlag=           0 FMFlag=      100000 FMFlg1=         800
         NFxFlg=           0 DoJE=F BraDBF=F KetDBF=F FulRan=T
         Omega=  0.000000  0.000000  1.000000  0.000000  0.000000 ICntrl=  100147 IOpCl=  0
         NMat0=    1 NMatS0=    1 NMatT0=    0 NMatD0=    1 NMtDS0=    0 NMtDT0=    0
         I1Cent=           0 NGrid=           0.
 Symmetry not used in FoFCou.
 Leave Link  703 at Sun Feb 09 14:09:26 2014, MaxMem=  196608000 cpu:      70.0
 (Enter d:\study\G09W\l716.exe)
 Dipole        =-2.16770471D-02 1.92692449D-01-7.65609892D-13
 Polarizability= 0.00000000D+00 0.00000000D+00 0.00000000D+00
                 0.00000000D+00 0.00000000D+00 0.00000000D+00
 -------------------------------------------------------------------
 Center     Atomic                   Forces (Hartrees/Bohr)
 Number     Number              X              Y              Z
 -------------------------------------------------------------------
      1        6          -0.000101964   -0.000024171    0.000237191
      2        6          -0.000101964   -0.000024171   -0.000237191
      3        6          -0.000028655    0.000046213   -0.000047302
      4        6           0.000009734   -0.000025369   -0.000182968
      5        6           0.000009734   -0.000025369    0.000182968
      6        1           0.000097542    0.000035664    0.000057265
      7        1           0.000097542    0.000035664   -0.000057265
      8        1          -0.000007883    0.000031954    0.000015595
      9        1           0.000009003   -0.000049533   -0.000024255
     10        1           0.000009003   -0.000049533    0.000024255
     11        1           0.000031847   -0.000011251   -0.000005938
     12        1          -0.000009623   -0.000003506   -0.000008273
     13        1          -0.000009623   -0.000003506    0.000008273
     14        1           0.000031847   -0.000011251    0.000005938
     15        1          -0.000007883    0.000031954   -0.000015595
     16        6          -0.000028655    0.000046213    0.000047302
 -------------------------------------------------------------------
 Cartesian Forces:  Max     0.000237191 RMS     0.000072605
 Leave Link  716 at Sun Feb 09 14:09:27 2014, MaxMem=  196608000 cpu:       0.0
 (Enter d:\study\G09W\l123.exe)
 IRC-IRC-IRC-IRC-IRC-IRC-IRC-IRC-IRC-IRC-IRC-IRC-IRC-IRC-IRC-IRC-IRC-IRC
          ******** Start new reaction path calculation ********
 Current Structure is TS -> diagonalize the Hessian.
 Supplied step size of   0.1000 bohr.
    Integration on MW PES will use step size of   0.2885 sqrt(amu)*bohr.
 Point Number:   0          Path Number:   1
 Calculating another point on the path.
 Point Number  1 in FORWARD path direction.
 Using LQA Reaction Path Following.
 IRC-IRC-IRC-IRC-IRC-IRC-IRC-IRC-IRC-IRC-IRC-IRC-IRC-IRC-IRC-IRC-IRC-IRC
 Leave Link  123 at Sun Feb 09 14:09:28 2014, MaxMem=  196608000 cpu:       0.0
 (Enter d:\study\G09W\l202.exe)
                          Input orientation:                          
 ---------------------------------------------------------------------
 Center     Atomic      Atomic             Coordinates (Angstroms)
 Number     Number       Type             X           Y           Z
 ---------------------------------------------------------------------
      1          6           0       -0.251215    1.574932    0.700684
      2          6           0       -0.251215    1.574932   -0.700684
      3          6           0        0.497495   -0.385686   -1.432414
      4          6           0       -0.259585   -1.299734   -0.700344
      5          6           0       -0.259585   -1.299734    0.700344
      6          1           0       -1.191209    1.481394   -1.235618
      7          1           0       -1.191209    1.481394    1.235618
      8          1           0        0.525122    2.118720    1.233614
      9          1           0        0.381376   -0.337409    2.513203
     10          1           0        0.381376   -0.337409   -2.513203
     11          1           0        1.475369   -0.077206   -1.076157
     12          1           0       -1.032228   -1.869938   -1.214760
     13          1           0       -1.032228   -1.869938    1.214760
     14          1           0        1.475369   -0.077206    1.076157
     15          1           0        0.525122    2.118720   -1.233614
     16          6           0        0.497495   -0.385686    1.432414
 ---------------------------------------------------------------------
                    Distance matrix (angstroms):
                    1          2          3          4          5
     1  C    0.000000
     2  C    1.401368   0.000000
     3  C    2.992440   2.222615   0.000000
     4  C    3.197914   2.874678   1.394482   0.000000
     5  C    2.874678   3.197914   2.440760   1.400688   0.000000
     6  H    2.154438   1.085584   2.525161   2.981462   3.514334
     7  H    1.085584   2.154438   3.668256   3.514334   2.981462
     8  H    1.087391   2.154046   3.657939   4.005220   3.547671
     9  H    2.709694   3.792926   3.947621   3.415228   2.150200
    10  H    3.792926   2.709694   1.088081   2.150200   3.415228
    11  H    2.977888   2.419015   1.085503   2.155429   2.767778
    12  H    4.018213   3.569507   2.142529   1.089373   2.142366
    13  H    3.569507   4.018213   3.398615   2.142366   1.089373
    14  H    2.419015   2.977888   2.710041   2.767778   2.155429
    15  H    2.154046   1.087391   2.512436   3.547671   4.005220
    16  C    2.222615   2.992440   2.864828   2.440760   1.394482
                    6          7          8          9         10
     6  H    0.000000
     7  H    2.471235   0.000000
     8  H    3.073936   1.830842   0.000000
     9  H    4.453619   2.722736   2.773189   0.000000
    10  H    2.722736   4.453619   4.482395   5.026406   0.000000
    11  H    3.092782   3.858001   3.325673   3.761387   1.824727
    12  H    3.355165   4.154642   4.932470   4.271373   2.456191
    13  H    4.154642   3.355165   4.281949   2.456191   4.271373
    14  H    3.858001   3.092782   2.397885   1.824727   3.761387
    15  H    1.830842   3.073936   2.467228   4.482395   2.773189
    16  C    3.668256   2.525161   2.512436   1.088081   3.947621
                   11         12         13         14         15
    11  H    0.000000
    12  H    3.085634   0.000000
    13  H    3.840602   2.429520   0.000000
    14  H    2.152313   3.840602   3.085634   0.000000
    15  H    2.397885   4.281949   4.932470   3.325673   0.000000
    16  C    2.710041   3.398615   2.142529   1.085503   3.657939
                   16
    16  C    0.000000
 Symmetry turned off by external request.
 Stoichiometry    C6H10
 Framework group  CS[X(C6H10)]
 Deg. of freedom    21
 Full point group                 CS      NOp   2
 Rotational constants (GHZ):      4.3509672      3.5163973      2.2812813
 Leave Link  202 at Sun Feb 09 14:09:29 2014, MaxMem=  196608000 cpu:       0.0
 (Enter d:\study\G09W\l301.exe)
 Standard basis: 6-31+G(d) (6D, 7F)
 Ernie: Thresh=  0.10000D-02 Tol=  0.10000D-05 Strict=F.
 Integral buffers will be    262144 words long.
 Raffenetti 2 integral format.
 Two-electron integral symmetry is turned off.
   134 basis functions,   232 primitive gaussians,   134 cartesian basis functions
    23 alpha electrons       23 beta electrons
       nuclear repulsion energy       224.4079980518 Hartrees.
 IExCor=  402 DFT=T Ex+Corr=B3LYP ExCW=0 ScaHFX=  0.200000
 ScaDFX=  0.800000  0.720000  1.000000  0.810000 ScalE2=  1.000000  1.000000
 IRadAn=      0 IRanWt=     -1 IRanGd=            0 ICorTp=0
 NAtoms=   16 NActive=   16 NUniq=   16 SFac= 7.50D-01 NAtFMM=   80 NAOKFM=F Big=F
 Leave Link  301 at Sun Feb 09 14:09:30 2014, MaxMem=  196608000 cpu:       0.0
 (Enter d:\study\G09W\l302.exe)
 NPDir=0 NMtPBC=     1 NCelOv=     1 NCel=       1 NClECP=     1 NCelD=      1
         NCelK=      1 NCelE2=     1 NClLst=     1 CellRange=     0.0.
 One-electron integrals computed using PRISM.
 NBasis=   134 RedAO= T  NBF=   134
 NBsUse=   134 1.00D-06 NBFU=   134
 Precomputing XC quadrature grid using
 IXCGrd= 2 IRadAn=           0 IRanWt=          -1 IRanGd=           0 AccXCQ= 1.00D-10.
 NRdTot=    1026 NPtTot=      129956 NUsed=      134745 NTot=      134761
 NSgBfM=   134   134   134   134   134 NAtAll=    16    16.
 Leave Link  302 at Sun Feb 09 14:09:31 2014, MaxMem=  196608000 cpu:       0.0
 (Enter d:\study\G09W\l303.exe)
 DipDrv:  MaxL=1.
 Leave Link  303 at Sun Feb 09 14:09:32 2014, MaxMem=  196608000 cpu:       0.0
 (Enter d:\study\G09W\l401.exe)
 Initial guess read from the read-write file.
 B after Tr=     0.000000    0.000000    0.000000
         Rot=    1.000000    0.000000    0.000000    0.000000 Ang=   0.00 deg.
 Guess basis will be translated and rotated to current coordinates.
 Generating alternative initial guess.
 Harris functional with IExCor=  402 diagonalized for initial guess.
 ExpMin= 4.38D-02 ExpMax= 3.05D+03 ExpMxC= 4.57D+02 IAcc=2 IRadAn=         0 AccDes= 0.00D+00
 HarFok:  IExCor=  402 AccDes= 0.00D+00 IRadAn=         0 IDoV= 1
 ScaDFX=  1.000000  1.000000  1.000000  1.000000
 FoFCou: FMM=F IPFlag=           0 FMFlag=      100000 FMFlg1=           0
         NFxFlg=           0 DoJE=T BraDBF=F KetDBF=T FulRan=T
         Omega=  0.000000  0.000000  1.000000  0.000000  0.000000 ICntrl=     500 IOpCl=  0
         NMat0=    1 NMatS0=    1 NMatT0=    0 NMatD0=    1 NMtDS0=    0 NMtDT0=    0
         I1Cent=           4 NGrid=           0.
 Symmetry not used in FoFCou.
 Harris En= -234.627795458376    
 Leave Link  401 at Sun Feb 09 14:09:35 2014, MaxMem=  196608000 cpu:       2.0
 (Enter d:\study\G09W\l502.exe)
 Closed shell SCF:
 Requested convergence on RMS density matrix=1.00D-08 within 128 cycles.
 Requested convergence on MAX density matrix=1.00D-06.
 Requested convergence on             energy=1.00D-06.
 No special actions if energy rises.
 Using DIIS extrapolation, IDIIS=  1040.
 Two-electron integral symmetry not used.
       134605 words used for storage of precomputed grid.
 Keep R1 ints in memory in canonical form, NReq=42339790.
 IEnd=      208166 IEndB=      208166 NGot=   196608000 MDV=   155524002
 LenX=   155524002 LenY=   155505605
 Symmetry not used in FoFDir.
 MinBra= 0 MaxBra= 2 Meth= 1.
 IRaf=       0 NMat=   1 IRICut=       1 DoRegI=T DoRafI=F ISym2E= 0 JSym2E=0.

 Cycle   1  Pass 1  IDiag  1:
 E= -234.554124554016    
 DIIS: error= 1.91D-03 at cycle   1 NSaved=   1.
 NSaved= 1 IEnMin= 1 EnMin= -234.554124554016     IErMin= 1 ErrMin= 1.91D-03
 ErrMax= 1.91D-03 EMaxC= 1.00D-01 BMatC= 4.08D-04 BMatP= 4.08D-04
 IDIUse=3 WtCom= 9.81D-01 WtEn= 1.91D-02
 Coeff-Com:  0.100D+01
 Coeff-En:   0.100D+01
 Coeff:      0.100D+01
 Gap=     0.203 Goal=   None    Shift=    0.000
 GapD=    0.203 DampG=1.000 DampE=1.000 DampFc=1.0000 IDamp=-1.
 RMSDP=5.77D-04 MaxDP=8.96D-03              OVMax= 2.83D-02

 Cycle   2  Pass 1  IDiag  1:
 E= -234.555469048705     Delta-E=       -0.001344494689 Rises=F Damp=F
 DIIS: error= 7.49D-04 at cycle   2 NSaved=   2.
 NSaved= 2 IEnMin= 2 EnMin= -234.555469048705     IErMin= 2 ErrMin= 7.49D-04
 ErrMax= 7.49D-04 EMaxC= 1.00D-01 BMatC= 4.18D-05 BMatP= 4.08D-04
 IDIUse=3 WtCom= 9.93D-01 WtEn= 7.49D-03
 Coeff-Com:  0.596D-01 0.940D+00
 Coeff-En:   0.000D+00 0.100D+01
 Coeff:      0.591D-01 0.941D+00
 Gap=     0.203 Goal=   None    Shift=    0.000
 RMSDP=2.50D-04 MaxDP=3.63D-03 DE=-1.34D-03 OVMax= 9.13D-03

 Cycle   3  Pass 1  IDiag  1:
 E= -234.555497808969     Delta-E=       -0.000028760264 Rises=F Damp=F
 DIIS: error= 5.14D-04 at cycle   3 NSaved=   3.
 NSaved= 3 IEnMin= 3 EnMin= -234.555497808969     IErMin= 3 ErrMin= 5.14D-04
 ErrMax= 5.14D-04 EMaxC= 1.00D-01 BMatC= 4.98D-05 BMatP= 4.18D-05
 IDIUse=3 WtCom= 3.06D-01 WtEn= 6.94D-01
 Coeff-Com: -0.539D-01 0.548D+00 0.506D+00
 Coeff-En:   0.000D+00 0.342D+00 0.658D+00
 Coeff:     -0.165D-01 0.405D+00 0.611D+00
 Gap=     0.202 Goal=   None    Shift=    0.000
 RMSDP=1.38D-04 MaxDP=1.65D-03 DE=-2.88D-05 OVMax= 6.77D-03

 Cycle   4  Pass 1  IDiag  1:
 E= -234.555534787605     Delta-E=       -0.000036978636 Rises=F Damp=F
 DIIS: error= 4.52D-04 at cycle   4 NSaved=   4.
 NSaved= 4 IEnMin= 4 EnMin= -234.555534787605     IErMin= 4 ErrMin= 4.52D-04
 ErrMax= 4.52D-04 EMaxC= 1.00D-01 BMatC= 2.02D-05 BMatP= 4.18D-05
 IDIUse=3 WtCom= 9.95D-01 WtEn= 4.52D-03
 Coeff-Com: -0.321D-01 0.165D+00 0.414D+00 0.452D+00
 Coeff-En:   0.000D+00 0.000D+00 0.308D+00 0.692D+00
 Coeff:     -0.319D-01 0.165D+00 0.414D+00 0.454D+00
 Gap=     0.203 Goal=   None    Shift=    0.000
 RMSDP=6.94D-05 MaxDP=1.19D-03 DE=-3.70D-05 OVMax= 2.87D-03

 Cycle   5  Pass 1  IDiag  1:
 E= -234.555559345616     Delta-E=       -0.000024558012 Rises=F Damp=F
 DIIS: error= 5.53D-05 at cycle   5 NSaved=   5.
 NSaved= 5 IEnMin= 5 EnMin= -234.555559345616     IErMin= 5 ErrMin= 5.53D-05
 ErrMax= 5.53D-05 EMaxC= 1.00D-01 BMatC= 6.19D-07 BMatP= 2.02D-05
 IDIUse=1 WtCom= 1.00D+00 WtEn= 0.00D+00
 Coeff-Com: -0.516D-02-0.295D-01 0.129D+00 0.251D+00 0.655D+00
 Coeff:     -0.516D-02-0.295D-01 0.129D+00 0.251D+00 0.655D+00
 Gap=     0.203 Goal=   None    Shift=    0.000
 RMSDP=1.46D-05 MaxDP=1.87D-04 DE=-2.46D-05 OVMax= 6.90D-04

 Cycle   6  Pass 1  IDiag  1:
 E= -234.555560228850     Delta-E=       -0.000000883233 Rises=F Damp=F
 DIIS: error= 1.02D-05 at cycle   6 NSaved=   6.
 NSaved= 6 IEnMin= 6 EnMin= -234.555560228850     IErMin= 6 ErrMin= 1.02D-05
 ErrMax= 1.02D-05 EMaxC= 1.00D-01 BMatC= 1.66D-08 BMatP= 6.19D-07
 IDIUse=1 WtCom= 1.00D+00 WtEn= 0.00D+00
 Coeff-Com:  0.141D-02-0.273D-01-0.889D-03 0.313D-01 0.188D+00 0.807D+00
 Coeff:      0.141D-02-0.273D-01-0.889D-03 0.313D-01 0.188D+00 0.807D+00
 Gap=     0.203 Goal=   None    Shift=    0.000
 RMSDP=5.03D-06 MaxDP=1.25D-04 DE=-8.83D-07 OVMax= 1.35D-04

 Cycle   7  Pass 1  IDiag  1:
 E= -234.555560253964     Delta-E=       -0.000000025115 Rises=F Damp=F
 DIIS: error= 6.59D-06 at cycle   7 NSaved=   7.
 NSaved= 7 IEnMin= 7 EnMin= -234.555560253964     IErMin= 7 ErrMin= 6.59D-06
 ErrMax= 6.59D-06 EMaxC= 1.00D-01 BMatC= 3.74D-09 BMatP= 1.66D-08
 IDIUse=1 WtCom= 1.00D+00 WtEn= 0.00D+00
 Coeff-Com:  0.106D-02-0.145D-01-0.619D-02 0.683D-02 0.814D-01 0.462D+00
 Coeff-Com:  0.469D+00
 Coeff:      0.106D-02-0.145D-01-0.619D-02 0.683D-02 0.814D-01 0.462D+00
 Coeff:      0.469D+00
 Gap=     0.203 Goal=   None    Shift=    0.000
 RMSDP=8.55D-07 MaxDP=1.30D-05 DE=-2.51D-08 OVMax= 2.46D-05

 Cycle   8  Pass 1  IDiag  1:
 E= -234.555560257973     Delta-E=       -0.000000004009 Rises=F Damp=F
 DIIS: error= 7.08D-07 at cycle   8 NSaved=   8.
 NSaved= 8 IEnMin= 8 EnMin= -234.555560257973     IErMin= 8 ErrMin= 7.08D-07
 ErrMax= 7.08D-07 EMaxC= 1.00D-01 BMatC= 9.69D-11 BMatP= 3.74D-09
 IDIUse=1 WtCom= 1.00D+00 WtEn= 0.00D+00
 Coeff-Com:  0.193D-03-0.166D-02-0.204D-02-0.176D-02 0.617D-02 0.575D-01
 Coeff-Com:  0.157D+00 0.785D+00
 Coeff:      0.193D-03-0.166D-02-0.204D-02-0.176D-02 0.617D-02 0.575D-01
 Coeff:      0.157D+00 0.785D+00
 Gap=     0.203 Goal=   None    Shift=    0.000
 RMSDP=2.89D-07 MaxDP=4.44D-06 DE=-4.01D-09 OVMax= 6.42D-06

 Cycle   9  Pass 1  IDiag  1:
 E= -234.555560258095     Delta-E=       -0.000000000122 Rises=F Damp=F
 DIIS: error= 1.46D-07 at cycle   9 NSaved=   9.
 NSaved= 9 IEnMin= 9 EnMin= -234.555560258095     IErMin= 9 ErrMin= 1.46D-07
 ErrMax= 1.46D-07 EMaxC= 1.00D-01 BMatC= 3.67D-12 BMatP= 9.69D-11
 IDIUse=1 WtCom= 1.00D+00 WtEn= 0.00D+00
 Coeff-Com:  0.103D-04 0.142D-03-0.284D-03-0.722D-03-0.168D-02-0.362D-02
 Coeff-Com:  0.260D-01 0.243D+00 0.737D+00
 Coeff:      0.103D-04 0.142D-03-0.284D-03-0.722D-03-0.168D-02-0.362D-02
 Coeff:      0.260D-01 0.243D+00 0.737D+00
 Gap=     0.203 Goal=   None    Shift=    0.000
 RMSDP=8.20D-08 MaxDP=1.40D-06 DE=-1.22D-10 OVMax= 7.64D-07

 Cycle  10  Pass 1  IDiag  1:
 E= -234.555560258102     Delta-E=       -0.000000000007 Rises=F Damp=F
 DIIS: error= 2.88D-08 at cycle  10 NSaved=  10.
 NSaved=10 IEnMin=10 EnMin= -234.555560258102     IErMin=10 ErrMin= 2.88D-08
 ErrMax= 2.88D-08 EMaxC= 1.00D-01 BMatC= 7.36D-14 BMatP= 3.67D-12
 IDIUse=1 WtCom= 1.00D+00 WtEn= 0.00D+00
 Coeff-Com: -0.435D-05 0.775D-04 0.297D-04-0.552D-04-0.533D-03-0.276D-02
 Coeff-Com: -0.135D-02 0.198D-01 0.147D+00 0.838D+00
 Coeff:     -0.435D-05 0.775D-04 0.297D-04-0.552D-04-0.533D-03-0.276D-02
 Coeff:     -0.135D-02 0.198D-01 0.147D+00 0.838D+00
 Gap=     0.203 Goal=   None    Shift=    0.000
 RMSDP=1.39D-08 MaxDP=2.15D-07 DE=-6.99D-12 OVMax= 1.27D-07

 Cycle  11  Pass 1  IDiag  1:
 E= -234.555560258101     Delta-E=        0.000000000001 Rises=F Damp=F
 DIIS: error= 5.17D-09 at cycle  11 NSaved=  11.
 NSaved=11 IEnMin=10 EnMin= -234.555560258102     IErMin=11 ErrMin= 5.17D-09
 ErrMax= 5.17D-09 EMaxC= 1.00D-01 BMatC= 2.83D-15 BMatP= 7.36D-14
 IDIUse=1 WtCom= 1.00D+00 WtEn= 0.00D+00
 Coeff-Com: -0.116D-05 0.113D-04 0.165D-04 0.841D-05-0.537D-04-0.493D-03
 Coeff-Com: -0.119D-02-0.281D-02 0.981D-02 0.172D+00 0.823D+00
 Coeff:     -0.116D-05 0.113D-04 0.165D-04 0.841D-05-0.537D-04-0.493D-03
 Coeff:     -0.119D-02-0.281D-02 0.981D-02 0.172D+00 0.823D+00
 Gap=     0.203 Goal=   None    Shift=    0.000
 RMSDP=1.77D-09 MaxDP=2.50D-08 DE= 1.36D-12 OVMax= 3.11D-08

 SCF Done:  E(RB3LYP) =  -234.555560258     A.U. after   11 cycles
             Convg  =    0.1773D-08             -V/T =  2.0107
 KE= 2.320680179391D+02 PE=-9.904450273854D+02 EE= 2.994134511363D+02
 Leave Link  502 at Sun Feb 09 14:09:52 2014, MaxMem=  196608000 cpu:      16.0
 (Enter d:\study\G09W\l801.exe)
 Range of M.O.s used for correlation:     1   134
 NBasis=   134 NAE=    23 NBE=    23 NFC=     0 NFV=     0
 NROrb=    134 NOA=    23 NOB=    23 NVA=   111 NVB=   111

 **** Warning!!: The largest alpha MO coefficient is  0.57555664D+02

 Leave Link  801 at Sun Feb 09 14:09:53 2014, MaxMem=  196608000 cpu:       0.0
 (Enter d:\study\G09W\l1101.exe)
 Leave Link 1101 at Sun Feb 09 14:09:55 2014, MaxMem=  196608000 cpu:       0.0
 (Enter d:\study\G09W\l1102.exe)
 Symmetrizing basis deriv contribution to polar:
 IMax=3 JMax=2 DiffMx= 0.00D+00
 Leave Link 1102 at Sun Feb 09 14:09:56 2014, MaxMem=  196608000 cpu:       0.0
 (Enter d:\study\G09W\l1110.exe)
 Leave Link 1110 at Sun Feb 09 14:09:58 2014, MaxMem=  196608000 cpu:       0.0
 (Enter d:\study\G09W\l1002.exe)
 Minotr:  Closed shell wavefunction.
 Leave Link 1002 at Sun Feb 09 14:09:59 2014, MaxMem=  196608000 cpu:       0.0
 (Enter d:\study\G09W\l701.exe)
 Compute integral first derivatives.
 ... and contract with generalized density number  0.
 Leave Link  701 at Sun Feb 09 14:10:01 2014, MaxMem=  196608000 cpu:       1.0
 (Enter d:\study\G09W\l702.exe)
 L702 exits ... SP integral derivatives will be done elsewhere.
 Leave Link  702 at Sun Feb 09 14:10:02 2014, MaxMem=  196608000 cpu:       0.0
 (Enter d:\study\G09W\l703.exe)
 Compute integral first derivatives, UseDBF=F ICtDFT=           0.
 Integral derivatives from FoFDir, PRISM(SPDF).
 Calling FoFJK, ICntrl=      2147 FMM=F ISym2X=0 I1Cent= 0 IOpClX= 0 NMat=1 NMatS=1 NMatT=0.
 FoFCou: FMM=F IPFlag=           0 FMFlag=      100000 FMFlg1=         800
         NFxFlg=           0 DoJE=F BraDBF=F KetDBF=F FulRan=T
         Omega=  0.000000  0.000000  1.000000  0.000000  0.000000 ICntrl=    2147 IOpCl=  0
         NMat0=    1 NMatS0=    1 NMatT0=    0 NMatD0=    1 NMtDS0=    0 NMtDT0=    0
         I1Cent=           0 NGrid=           0.
 Symmetry not used in FoFCou.
 Leave Link  703 at Sun Feb 09 14:10:08 2014, MaxMem=  196608000 cpu:       6.0
 (Enter d:\study\G09W\l716.exe)
 Dipole        =-2.28167361D-02 2.16639713D-01-2.13873363D-10
 Polarizability= 0.00000000D+00 0.00000000D+00 0.00000000D+00
                 0.00000000D+00 0.00000000D+00 0.00000000D+00
 -------------------------------------------------------------------
 Center     Atomic                   Forces (Hartrees/Bohr)
 Number     Number              X              Y              Z
 -------------------------------------------------------------------
      1        6           0.001692251   -0.005106953    0.002475199
      2        6           0.001692250   -0.005106952   -0.002475201
      3        6          -0.001232680    0.005188810    0.001549158
      4        6          -0.000520242   -0.000069709    0.000801826
      5        6          -0.000520245   -0.000069713   -0.000801827
      6        1           0.000240616    0.000212333    0.000235687
      7        1           0.000240615    0.000212333   -0.000235687
      8        1          -0.000231816    0.000070403   -0.000173315
      9        1          -0.000054825    0.000173692   -0.000133698
     10        1          -0.000054825    0.000173692    0.000133697
     11        1          -0.000051026   -0.000322503   -0.000180964
     12        1           0.000157724   -0.000146069   -0.000013866
     13        1           0.000157723   -0.000146070    0.000013867
     14        1          -0.000051027   -0.000322503    0.000180965
     15        1          -0.000231817    0.000070401    0.000173316
     16        6          -0.001232677    0.005188810   -0.001549158
 -------------------------------------------------------------------
 Cartesian Forces:  Max     0.005188810 RMS     0.001674775
 Leave Link  716 at Sun Feb 09 14:10:09 2014, MaxMem=  196608000 cpu:       0.0
 (Enter d:\study\G09W\l123.exe)
 IRC-IRC-IRC-IRC-IRC-IRC-IRC-IRC-IRC-IRC-IRC-IRC-IRC-IRC-IRC-IRC-IRC-IRC
 Pt  1 Step number   1 out of a maximum of  20
 Using modified Bulirsch-Stoer corrector interation.
   Using distance weighted interpolants to fit PES.
    Cycle     1 NS=     2
    Cycle     2 NS=     4 Truncation Error =  0.001925044
    Cycle     3 NS=     6 Truncation Error =  0.005408576
    Cycle     4 NS=     8 Truncation Error =  0.011451460
    Cycle     5 NS=    12 Truncation Error =  0.004465859
    Cycle     6 NS=    16 Truncation Error =  0.016875026
    Cycle     7 NS=    24 Truncation Error =  0.008447470
    Cycle     8 NS=    32 Truncation Error =  0.001358495
    Cycle     9 NS=    48 Truncation Error =  0.000461555
    Cycle    10 NS=    64 Truncation Error =  0.000216724
    Cycle    11 NS=    96 Truncation Error =  0.000038482
    Cycle    12 NS=   128 Truncation Error =  0.000004171
    Cycle    13 NS=   192 Truncation Error =  0.000000263
 BS completed in   13 cycles and     632 integration steps.
 SUMMARY OF CORRECTOR INTEGRATION:
   Original End Point Energy  =  -234.555560
   Corrected End Point Energy =  -234.555562
   Old End-Start Dist.        =     0.288495
   New End-Start Dist.        =     0.288324
   New End-Old End Dist.      =     0.007784
 CORRECTOR INTEGRATION CONVERGENCE:
   Recorrection delta-x convergence threshold:    0.010000
   Delta-x Convergence Met
 Point Number:   1          Path Number:   1
                    CURRENT STRUCTURE
                Cartesian Coordinates (Ang):                
 ---------------------------------------------------------------------
 Center     Atomic                     Coordinates (Angstroms)
 Number     Number                        X           Y           Z
 ---------------------------------------------------------------------
      1          6                   -0.251236    1.575093    0.701131
      2          6                   -0.251236    1.575093   -0.701131
      3          6                    0.497602   -0.385618   -1.432593
      4          6                   -0.259699   -1.299881   -0.700397
      5          6                   -0.259699   -1.299881    0.700397
      6          1                   -1.191152    1.482026   -1.235331
      7          1                   -1.191152    1.482026    1.235331
      8          1                    0.524596    2.119645    1.233490
      9          1                    0.381731   -0.338640    2.513446
     10          1                    0.381731   -0.338640   -2.513446
     11          1                    1.475477   -0.077860   -1.076800
     12          1                   -1.031879   -1.870540   -1.214949
     13          1                   -1.031879   -1.870540    1.214949
     14          1                    1.475477   -0.077860    1.076800
     15          1                    0.524596    2.119645   -1.233490
     16          6                    0.497602   -0.385618    1.432593
 ---------------------------------------------------------------------
   CHANGE IN THE REACTION COORDINATE =    0.28832
   NET REACTION COORDINATE UP TO THIS POINT =    0.28832
  # OF POINTS ALONG THE PATH =   1
  # OF STEPS =   1

 Calculating another point on the path.
 Point Number  2 in FORWARD path direction.
 Using LQA Reaction Path Following.
   LQA: T_Est iteration completed in    3 iterations.
 IRC-IRC-IRC-IRC-IRC-IRC-IRC-IRC-IRC-IRC-IRC-IRC-IRC-IRC-IRC-IRC-IRC-IRC
 Leave Link  123 at Sun Feb 09 14:10:11 2014, MaxMem=  196608000 cpu:       0.0
 (Enter d:\study\G09W\l202.exe)
                          Input orientation:                          
 ---------------------------------------------------------------------
 Center     Atomic      Atomic             Coordinates (Angstroms)
 Number     Number       Type             X           Y           Z
 ---------------------------------------------------------------------
      1          6           0       -0.244179    1.555242    0.707105
      2          6           0       -0.244179    1.555242   -0.707105
      3          6           0        0.491551   -0.366627   -1.426545
      4          6           0       -0.261153   -1.299687   -0.696763
      5          6           0       -0.261153   -1.299687    0.696763
      6          1           0       -1.192288    1.488906   -1.233180
      7          1           0       -1.192288    1.488906    1.233180
      8          1           0        0.520859    2.125245    1.230648
      9          1           0        0.378529   -0.327406    2.508445
     10          1           0        0.378529   -0.327406   -2.508445
     11          1           0        1.482861   -0.087368   -1.079499
     12          1           0       -1.025809   -1.876722   -1.215641
     13          1           0       -1.025809   -1.876722    1.215641
     14          1           0        1.482861   -0.087368    1.079499
     15          1           0        0.520859    2.125245   -1.230648
     16          6           0        0.491551   -0.366627    1.426545
 ---------------------------------------------------------------------
                    Distance matrix (angstroms):
                    1          2          3          4          5
     1  C    0.000000
     2  C    1.414210   0.000000
     3  C    2.964345   2.180017   0.000000
     4  C    3.181471   2.854999   1.403477   0.000000
     5  C    2.854999   3.181471   2.438361   1.393526   0.000000
     6  H    2.160559   1.086309   2.513107   2.988480   3.516809
     7  H    1.086309   2.160559   3.654101   3.516809   2.988480
     8  H    1.088248   2.159878   3.642932   4.007071   3.553412
     9  H    2.678984   3.777816   3.936808   3.409969   2.153304
    10  H    3.777816   2.678984   1.088495   2.153304   3.409969
    11  H    2.978722   2.412366   1.086794   2.158191   2.768828
    12  H    4.010770   3.556393   2.151104   1.089450   2.138915
    13  H    3.556393   4.010770   3.400575   2.138915   1.089450
    14  H    2.412366   2.978722   2.709416   2.768828   2.158191
    15  H    2.159878   1.088248   2.499732   3.553412   4.007071
    16  C    2.180017   2.964345   2.853089   2.438361   1.403477
                    6          7          8          9         10
     6  H    0.000000
     7  H    2.466359   0.000000
     8  H    3.067613   1.827514   0.000000
     9  H    4.445921   2.718963   2.769209   0.000000
    10  H    2.718963   4.445921   4.473989   5.016891   0.000000
    11  H    3.108807   3.871633   3.340341   3.761716   1.821828
    12  H    3.369789   4.165560   4.938851   4.270991   2.458433
    13  H    4.165560   3.369789   4.290472   2.458433   4.270991
    14  H    3.871633   3.108807   2.417426   1.821828   3.761716
    15  H    1.827514   3.067613   2.461296   4.473989   2.769209
    16  C    3.654101   2.513107   2.499732   1.088495   3.936808
                   11         12         13         14         15
    11  H    0.000000
    12  H    3.084436   0.000000
    13  H    3.842249   2.431281   0.000000
    14  H    2.158997   3.842249   3.084436   0.000000
    15  H    2.417426   4.290472   4.938851   3.340341   0.000000
    16  C    2.709416   3.400575   2.151104   1.086794   3.642932
                   16
    16  C    0.000000
 Symmetry turned off by external request.
 Stoichiometry    C6H10
 Framework group  CS[X(C6H10)]
 Deg. of freedom    21
 Full point group                 CS      NOp   2
 Rotational constants (GHZ):      4.3703354      3.5629914      2.3029956
 Leave Link  202 at Sun Feb 09 14:10:12 2014, MaxMem=  196608000 cpu:       0.0
 (Enter d:\study\G09W\l301.exe)
 Standard basis: 6-31+G(d) (6D, 7F)
 Ernie: Thresh=  0.10000D-02 Tol=  0.10000D-05 Strict=F.
 Integral buffers will be    262144 words long.
 Raffenetti 2 integral format.
 Two-electron integral symmetry is turned off.
   134 basis functions,   232 primitive gaussians,   134 cartesian basis functions
    23 alpha electrons       23 beta electrons
       nuclear repulsion energy       224.8595982993 Hartrees.
 IExCor=  402 DFT=T Ex+Corr=B3LYP ExCW=0 ScaHFX=  0.200000
 ScaDFX=  0.800000  0.720000  1.000000  0.810000 ScalE2=  1.000000  1.000000
 IRadAn=      0 IRanWt=     -1 IRanGd=            0 ICorTp=0
 NAtoms=   16 NActive=   16 NUniq=   16 SFac= 7.50D-01 NAtFMM=   80 NAOKFM=F Big=F
 Leave Link  301 at Sun Feb 09 14:10:13 2014, MaxMem=  196608000 cpu:       0.0
 (Enter d:\study\G09W\l302.exe)
 NPDir=0 NMtPBC=     1 NCelOv=     1 NCel=       1 NClECP=     1 NCelD=      1
         NCelK=      1 NCelE2=     1 NClLst=     1 CellRange=     0.0.
 One-electron integrals computed using PRISM.
 NBasis=   134 RedAO= T  NBF=   134
 NBsUse=   134 1.00D-06 NBFU=   134
 Precomputing XC quadrature grid using
 IXCGrd= 2 IRadAn=           0 IRanWt=          -1 IRanGd=           0 AccXCQ= 1.00D-10.
 NRdTot=    1026 NPtTot=      129956 NUsed=      134745 NTot=      134761
 NSgBfM=   134   134   134   134   134 NAtAll=    16    16.
 Leave Link  302 at Sun Feb 09 14:10:15 2014, MaxMem=  196608000 cpu:       1.0
 (Enter d:\study\G09W\l303.exe)
 DipDrv:  MaxL=1.
 Leave Link  303 at Sun Feb 09 14:10:15 2014, MaxMem=  196608000 cpu:       0.0
 (Enter d:\study\G09W\l401.exe)
 Initial guess read from the read-write file.
 B after Tr=     0.000000    0.000000    0.000000
         Rot=    1.000000    0.000000    0.000000    0.000000 Ang=   0.00 deg.
 Guess basis will be translated and rotated to current coordinates.
 Generating alternative initial guess.
 Harris functional with IExCor=  402 diagonalized for initial guess.
 ExpMin= 4.38D-02 ExpMax= 3.05D+03 ExpMxC= 4.57D+02 IAcc=2 IRadAn=         0 AccDes= 0.00D+00
 HarFok:  IExCor=  402 AccDes= 0.00D+00 IRadAn=         0 IDoV= 1
 ScaDFX=  1.000000  1.000000  1.000000  1.000000
 FoFCou: FMM=F IPFlag=           0 FMFlag=      100000 FMFlg1=           0
         NFxFlg=           0 DoJE=T BraDBF=F KetDBF=T FulRan=T
         Omega=  0.000000  0.000000  1.000000  0.000000  0.000000 ICntrl=     500 IOpCl=  0
         NMat0=    1 NMatS0=    1 NMatT0=    0 NMatD0=    1 NMtDS0=    0 NMtDT0=    0
         I1Cent=           4 NGrid=           0.
 Symmetry not used in FoFCou.
 Harris En= -234.626129888149    
 Leave Link  401 at Sun Feb 09 14:10:18 2014, MaxMem=  196608000 cpu:       2.0
 (Enter d:\study\G09W\l502.exe)
 Closed shell SCF:
 Requested convergence on RMS density matrix=1.00D-08 within 128 cycles.
 Requested convergence on MAX density matrix=1.00D-06.
 Requested convergence on             energy=1.00D-06.
 No special actions if energy rises.
 Using DIIS extrapolation, IDIIS=  1040.
 Two-electron integral symmetry not used.
       134605 words used for storage of precomputed grid.
 Keep R1 ints in memory in canonical form, NReq=42339790.
 IEnd=      208166 IEndB=      208166 NGot=   196608000 MDV=   155524002
 LenX=   155524002 LenY=   155505605
 Symmetry not used in FoFDir.
 MinBra= 0 MaxBra= 2 Meth= 1.
 IRaf=       0 NMat=   1 IRICut=       1 DoRegI=T DoRafI=F ISym2E= 0 JSym2E=0.

 Cycle   1  Pass 1  IDiag  1:
 E= -234.555483262257    
 DIIS: error= 2.04D-03 at cycle   1 NSaved=   1.
 NSaved= 1 IEnMin= 1 EnMin= -234.555483262257     IErMin= 1 ErrMin= 2.04D-03
 ErrMax= 2.04D-03 EMaxC= 1.00D-01 BMatC= 4.56D-04 BMatP= 4.56D-04
 IDIUse=3 WtCom= 9.80D-01 WtEn= 2.04D-02
 Coeff-Com:  0.100D+01
 Coeff-En:   0.100D+01
 Coeff:      0.100D+01
 Gap=     0.206 Goal=   None    Shift=    0.000
 GapD=    0.206 DampG=1.000 DampE=1.000 DampFc=1.0000 IDamp=-1.
 RMSDP=6.47D-04 MaxDP=1.13D-02              OVMax= 2.95D-02

 Cycle   2  Pass 1  IDiag  1:
 E= -234.556994538969     Delta-E=       -0.001511276712 Rises=F Damp=F
 DIIS: error= 8.00D-04 at cycle   2 NSaved=   2.
 NSaved= 2 IEnMin= 2 EnMin= -234.556994538969     IErMin= 2 ErrMin= 8.00D-04
 ErrMax= 8.00D-04 EMaxC= 1.00D-01 BMatC= 4.41D-05 BMatP= 4.56D-04
 IDIUse=3 WtCom= 9.92D-01 WtEn= 8.00D-03
 Coeff-Com:  0.503D-01 0.950D+00
 Coeff-En:   0.000D+00 0.100D+01
 Coeff:      0.499D-01 0.950D+00
 Gap=     0.206 Goal=   None    Shift=    0.000
 RMSDP=2.44D-04 MaxDP=3.07D-03 DE=-1.51D-03 OVMax= 9.56D-03

 Cycle   3  Pass 1  IDiag  1:
 E= -234.557029111287     Delta-E=       -0.000034572318 Rises=F Damp=F
 DIIS: error= 5.50D-04 at cycle   3 NSaved=   3.
 NSaved= 3 IEnMin= 3 EnMin= -234.557029111287     IErMin= 3 ErrMin= 5.50D-04
 ErrMax= 5.50D-04 EMaxC= 1.00D-01 BMatC= 5.21D-05 BMatP= 4.41D-05
 IDIUse=3 WtCom= 2.99D-01 WtEn= 7.01D-01
 Coeff-Com: -0.555D-01 0.548D+00 0.508D+00
 Coeff-En:   0.000D+00 0.314D+00 0.686D+00
 Coeff:     -0.166D-01 0.384D+00 0.632D+00
 Gap=     0.205 Goal=   None    Shift=    0.000
 RMSDP=1.45D-04 MaxDP=1.82D-03 DE=-3.46D-05 OVMax= 6.97D-03

 Cycle   4  Pass 1  IDiag  1:
 E= -234.557063063070     Delta-E=       -0.000033951783 Rises=F Damp=F
 DIIS: error= 5.26D-04 at cycle   4 NSaved=   4.
 NSaved= 4 IEnMin= 4 EnMin= -234.557063063070     IErMin= 4 ErrMin= 5.26D-04
 ErrMax= 5.26D-04 EMaxC= 1.00D-01 BMatC= 2.49D-05 BMatP= 4.41D-05
 IDIUse=3 WtCom= 9.95D-01 WtEn= 5.26D-03
 Coeff-Com: -0.321D-01 0.165D+00 0.429D+00 0.438D+00
 Coeff-En:   0.000D+00 0.000D+00 0.342D+00 0.658D+00
 Coeff:     -0.319D-01 0.164D+00 0.429D+00 0.440D+00
 Gap=     0.205 Goal=   None    Shift=    0.000
 RMSDP=7.01D-05 MaxDP=1.05D-03 DE=-3.40D-05 OVMax= 3.11D-03

 Cycle   5  Pass 1  IDiag  1:
 E= -234.557093192841     Delta-E=       -0.000030129771 Rises=F Damp=F
 DIIS: error= 6.91D-05 at cycle   5 NSaved=   5.
 NSaved= 5 IEnMin= 5 EnMin= -234.557093192841     IErMin= 5 ErrMin= 6.91D-05
 ErrMax= 6.91D-05 EMaxC= 1.00D-01 BMatC= 7.68D-07 BMatP= 2.49D-05
 IDIUse=1 WtCom= 1.00D+00 WtEn= 0.00D+00
 Coeff-Com: -0.530D-02-0.289D-01 0.143D+00 0.254D+00 0.637D+00
 Coeff:     -0.530D-02-0.289D-01 0.143D+00 0.254D+00 0.637D+00
 Gap=     0.205 Goal=   None    Shift=    0.000
 RMSDP=1.59D-05 MaxDP=2.03D-04 DE=-3.01D-05 OVMax= 7.38D-04

 Cycle   6  Pass 1  IDiag  1:
 E= -234.557094267982     Delta-E=       -0.000001075141 Rises=F Damp=F
 DIIS: error= 1.39D-05 at cycle   6 NSaved=   6.
 NSaved= 6 IEnMin= 6 EnMin= -234.557094267982     IErMin= 6 ErrMin= 1.39D-05
 ErrMax= 1.39D-05 EMaxC= 1.00D-01 BMatC= 2.21D-08 BMatP= 7.68D-07
 IDIUse=1 WtCom= 1.00D+00 WtEn= 0.00D+00
 Coeff-Com:  0.121D-02-0.280D-01 0.530D-02 0.407D-01 0.200D+00 0.780D+00
 Coeff:      0.121D-02-0.280D-01 0.530D-02 0.407D-01 0.200D+00 0.780D+00
 Gap=     0.205 Goal=   None    Shift=    0.000
 RMSDP=4.88D-06 MaxDP=1.15D-04 DE=-1.08D-06 OVMax= 1.40D-04

 Cycle   7  Pass 1  IDiag  1:
 E= -234.557094297628     Delta-E=       -0.000000029646 Rises=F Damp=F
 DIIS: error= 7.95D-06 at cycle   7 NSaved=   7.
 NSaved= 7 IEnMin= 7 EnMin= -234.557094297628     IErMin= 7 ErrMin= 7.95D-06
 ErrMax= 7.95D-06 EMaxC= 1.00D-01 BMatC= 6.22D-09 BMatP= 2.21D-08
 IDIUse=1 WtCom= 1.00D+00 WtEn= 0.00D+00
 Coeff-Com:  0.106D-02-0.150D-01-0.564D-02 0.857D-02 0.818D-01 0.462D+00
 Coeff-Com:  0.468D+00
 Coeff:      0.106D-02-0.150D-01-0.564D-02 0.857D-02 0.818D-01 0.462D+00
 Coeff:      0.468D+00
 Gap=     0.205 Goal=   None    Shift=    0.000
 RMSDP=9.85D-07 MaxDP=1.31D-05 DE=-2.96D-08 OVMax= 3.09D-05

 Cycle   8  Pass 1  IDiag  1:
 E= -234.557094304314     Delta-E=       -0.000000006685 Rises=F Damp=F
 DIIS: error= 4.92D-07 at cycle   8 NSaved=   8.
 NSaved= 8 IEnMin= 8 EnMin= -234.557094304314     IErMin= 8 ErrMin= 4.92D-07
 ErrMax= 4.92D-07 EMaxC= 1.00D-01 BMatC= 7.16D-11 BMatP= 6.22D-09
 IDIUse=1 WtCom= 1.00D+00 WtEn= 0.00D+00
 Coeff-Com:  0.187D-03-0.162D-02-0.204D-02-0.153D-02 0.560D-02 0.552D-01
 Coeff-Com:  0.119D+00 0.825D+00
 Coeff:      0.187D-03-0.162D-02-0.204D-02-0.153D-02 0.560D-02 0.552D-01
 Coeff:      0.119D+00 0.825D+00
 Gap=     0.205 Goal=   None    Shift=    0.000
 RMSDP=3.07D-07 MaxDP=3.96D-06 DE=-6.69D-09 OVMax= 5.83D-06

 Cycle   9  Pass 1  IDiag  1:
 E= -234.557094304404     Delta-E=       -0.000000000091 Rises=F Damp=F
 DIIS: error= 1.75D-07 at cycle   9 NSaved=   9.
 NSaved= 9 IEnMin= 9 EnMin= -234.557094304404     IErMin= 9 ErrMin= 1.75D-07
 ErrMax= 1.75D-07 EMaxC= 1.00D-01 BMatC= 3.96D-12 BMatP= 7.16D-11
 IDIUse=1 WtCom= 1.00D+00 WtEn= 0.00D+00
 Coeff-Com:  0.119D-04 0.128D-03-0.336D-03-0.728D-03-0.161D-02-0.258D-02
 Coeff-Com:  0.168D-01 0.258D+00 0.730D+00
 Coeff:      0.119D-04 0.128D-03-0.336D-03-0.728D-03-0.161D-02-0.258D-02
 Coeff:      0.168D-01 0.258D+00 0.730D+00
 Gap=     0.205 Goal=   None    Shift=    0.000
 RMSDP=8.59D-08 MaxDP=1.47D-06 DE=-9.07D-11 OVMax= 7.53D-07

 Cycle  10  Pass 1  IDiag  1:
 E= -234.557094304407     Delta-E=       -0.000000000003 Rises=F Damp=F
 DIIS: error= 2.99D-08 at cycle  10 NSaved=  10.
 NSaved=10 IEnMin=10 EnMin= -234.557094304407     IErMin=10 ErrMin= 2.99D-08
 ErrMax= 2.99D-08 EMaxC= 1.00D-01 BMatC= 7.77D-14 BMatP= 3.96D-12
 IDIUse=1 WtCom= 1.00D+00 WtEn= 0.00D+00
 Coeff-Com: -0.389D-05 0.720D-04 0.213D-04-0.641D-04-0.495D-03-0.245D-02
 Coeff-Com: -0.175D-02 0.194D-01 0.143D+00 0.842D+00
 Coeff:     -0.389D-05 0.720D-04 0.213D-04-0.641D-04-0.495D-03-0.245D-02
 Coeff:     -0.175D-02 0.194D-01 0.143D+00 0.842D+00
 Gap=     0.205 Goal=   None    Shift=    0.000
 RMSDP=1.36D-08 MaxDP=2.10D-07 DE=-2.50D-12 OVMax= 1.34D-07

 Cycle  11  Pass 1  IDiag  1:
 E= -234.557094304414     Delta-E=       -0.000000000007 Rises=F Damp=F
 DIIS: error= 5.25D-09 at cycle  11 NSaved=  11.
 NSaved=11 IEnMin=11 EnMin= -234.557094304414     IErMin=11 ErrMin= 5.25D-09
 ErrMax= 5.25D-09 EMaxC= 1.00D-01 BMatC= 2.86D-15 BMatP= 7.77D-14
 IDIUse=1 WtCom= 1.00D+00 WtEn= 0.00D+00
 Coeff-Com: -0.109D-05 0.109D-04 0.161D-04 0.630D-05-0.495D-04-0.456D-03
 Coeff-Com: -0.987D-03-0.306D-02 0.970D-02 0.169D+00 0.826D+00
 Coeff:     -0.109D-05 0.109D-04 0.161D-04 0.630D-05-0.495D-04-0.456D-03
 Coeff:     -0.987D-03-0.306D-02 0.970D-02 0.169D+00 0.826D+00
 Gap=     0.205 Goal=   None    Shift=    0.000
 RMSDP=1.71D-09 MaxDP=2.52D-08 DE=-6.82D-12 OVMax= 3.08D-08

 SCF Done:  E(RB3LYP) =  -234.557094304     A.U. after   11 cycles
             Convg  =    0.1714D-08             -V/T =  2.0109
 KE= 2.320195600817D+02 PE=-9.913198860366D+02 EE= 2.998836333512D+02
 Leave Link  502 at Sun Feb 09 14:10:34 2014, MaxMem=  196608000 cpu:      15.0
 (Enter d:\study\G09W\l801.exe)
 Range of M.O.s used for correlation:     1   134
 NBasis=   134 NAE=    23 NBE=    23 NFC=     0 NFV=     0
 NROrb=    134 NOA=    23 NOB=    23 NVA=   111 NVB=   111

 **** Warning!!: The largest alpha MO coefficient is  0.56956864D+02

 Leave Link  801 at Sun Feb 09 14:10:35 2014, MaxMem=  196608000 cpu:       0.0
 (Enter d:\study\G09W\l1101.exe)
 Leave Link 1101 at Sun Feb 09 14:10:36 2014, MaxMem=  196608000 cpu:       0.0
 (Enter d:\study\G09W\l1102.exe)
 Symmetrizing basis deriv contribution to polar:
 IMax=3 JMax=2 DiffMx= 0.00D+00
 Leave Link 1102 at Sun Feb 09 14:10:38 2014, MaxMem=  196608000 cpu:       0.0
 (Enter d:\study\G09W\l1110.exe)
 Leave Link 1110 at Sun Feb 09 14:10:39 2014, MaxMem=  196608000 cpu:       0.0
 (Enter d:\study\G09W\l1002.exe)
 Minotr:  Closed shell wavefunction.
 Leave Link 1002 at Sun Feb 09 14:10:40 2014, MaxMem=  196608000 cpu:       0.0
 (Enter d:\study\G09W\l701.exe)
 Compute integral first derivatives.
 ... and contract with generalized density number  0.
 Leave Link  701 at Sun Feb 09 14:10:40 2014, MaxMem=  196608000 cpu:       0.0
 (Enter d:\study\G09W\l702.exe)
 L702 exits ... SP integral derivatives will be done elsewhere.
 Leave Link  702 at Sun Feb 09 14:10:41 2014, MaxMem=  196608000 cpu:       0.0
 (Enter d:\study\G09W\l703.exe)
 Compute integral first derivatives, UseDBF=F ICtDFT=           0.
 Integral derivatives from FoFDir, PRISM(SPDF).
 Calling FoFJK, ICntrl=      2147 FMM=F ISym2X=0 I1Cent= 0 IOpClX= 0 NMat=1 NMatS=1 NMatT=0.
 FoFCou: FMM=F IPFlag=           0 FMFlag=      100000 FMFlg1=         800
         NFxFlg=           0 DoJE=F BraDBF=F KetDBF=F FulRan=T
         Omega=  0.000000  0.000000  1.000000  0.000000  0.000000 ICntrl=    2147 IOpCl=  0
         NMat0=    1 NMatS0=    1 NMatT0=    0 NMatD0=    1 NMtDS0=    0 NMtDT0=    0
         I1Cent=           0 NGrid=           0.
 Symmetry not used in FoFCou.
 Leave Link  703 at Sun Feb 09 14:10:47 2014, MaxMem=  196608000 cpu:       5.0
 (Enter d:\study\G09W\l716.exe)
 Dipole        =-2.43416227D-02 2.36595121D-01-2.37179165D-11
 Polarizability= 0.00000000D+00 0.00000000D+00 0.00000000D+00
                 0.00000000D+00 0.00000000D+00 0.00000000D+00
 -------------------------------------------------------------------
[...]
 Center     Atomic                     Coordinates (Angstroms)
 Number     Number                        X           Y           Z
 ---------------------------------------------------------------------
      1          6                   -0.346470    1.867042    0.668482
      2          6                   -0.346470    1.867042   -0.668482
      3          6                    0.585438   -0.632597   -1.520254
      4          6                   -0.250854   -1.331677   -0.729555
      5          6                   -0.250854   -1.331677    0.729555
      6          1                   -1.209675    1.543398   -1.241732
      7          1                   -1.209675    1.543398    1.241732
      8          1                    0.502440    2.228925    1.244053
      9          1                    0.472908   -0.634834    2.600934
     10          1                    0.472908   -0.634834   -2.600934
     11          1                    1.432586   -0.080103   -1.128174
     12          1                   -1.054735   -1.895027   -1.202898
     13          1                   -1.054735   -1.895027    1.202898
     14          1                    1.432586   -0.080103    1.128174
     15          1                    0.502440    2.228925   -1.244053
     16          6                    0.585438   -0.632597    1.520254
 ---------------------------------------------------------------------
   CHANGE IN THE REACTION COORDINATE =    0.28804
   NET REACTION COORDINATE UP TO THIS POINT =    3.74569
  # OF POINTS ALONG THE PATH =  31
  # OF STEPS =   2

 Calculating another point on the path.
 Point Number 14 in REVERSE path direction.
 Using LQA Reaction Path Following.
   LQA: T_Est iteration completed in    2 iterations.
 PES minimum detected within a second-order step.
 Calculation of REVERSE path complete.
 Reaction path calculation complete.
 
 Energies reported relative to the TS energy of        -234.555086
 --------------------------------------------------------------------------
    Summary of reaction path following
 --------------------------------------------------------------------------
                        Energy   Rx Coord
   1                   -0.02053  -3.74569
   2                   -0.01920  -3.45765
   3                   -0.01774  -3.16958
   4                   -0.01616  -2.88151
   5                   -0.01445  -2.59344
   6                   -0.01263  -2.30537
   7                   -0.01071  -2.01730
   8                   -0.00873  -1.72921
   9                   -0.00673  -1.44109
  10                   -0.00477  -1.15294
  11                   -0.00297  -0.86476
  12                   -0.00146  -0.57656
  13                   -0.00040  -0.28832
  14                    0.00000   0.00000
  15                   -0.00048   0.28832
  16                   -0.00201   0.57669
  17                   -0.00473   0.86508
  18                   -0.00868   1.15349
  19                   -0.01378   1.44190
  20                   -0.01992   1.73030
  21                   -0.02691   2.01871
  22                   -0.03453   2.30712
  23                   -0.04256   2.59552
  24                   -0.05077   2.88393
  25                   -0.05890   3.17233
  26                   -0.06670   3.46073
  27                   -0.07389   3.74913
  28                   -0.08019   4.03749
  29                   -0.08530   4.32578
  30                   -0.08892   4.61372
  31                   -0.09088   4.88662
  32                   -0.09143   5.04046
 --------------------------------------------------------------------------
 
 Total number of points:                   31
 Total number of gradient calculations:    66
 Total number of Hessian calculations:      1
 IRC-IRC-IRC-IRC-IRC-IRC-IRC-IRC-IRC-IRC-IRC-IRC-IRC-IRC-IRC-IRC-IRC-IRC
 Leave Link  123 at Sun Feb 09 14:50:53 2014, MaxMem=  196608000 cpu:       0.0
 (Enter d:\study\G09W\l202.exe)
                          Input orientation:                          
 ---------------------------------------------------------------------
 Center     Atomic      Atomic             Coordinates (Angstroms)
 Number     Number       Type             X           Y           Z
 ---------------------------------------------------------------------
      1          6           0       -0.346425    1.866862    0.668962
      2          6           0       -0.346425    1.866862   -0.668962
      3          6           0        0.585534   -0.632390   -1.520360
      4          6           0       -0.251006   -1.331712   -0.729395
      5          6           0       -0.251006   -1.331712    0.729395
      6          1           0       -1.209756    1.544260   -1.241433
      7          1           0       -1.209756    1.544260    1.241433
      8          1           0        0.502072    2.229567    1.243807
      9          1           0        0.473378   -0.636168    2.601407
     10          1           0        0.473378   -0.636168   -2.601407
     11          1           0        1.432591   -0.080771   -1.128593
     12          1           0       -1.054850   -1.895115   -1.202795
     13          1           0       -1.054850   -1.895115    1.202795
     14          1           0        1.432591   -0.080771    1.128593
     15          1           0        0.502072    2.229567   -1.243807
     16          6           0        0.585534   -0.632390    1.520360
 ---------------------------------------------------------------------
                    Distance matrix (angstroms):
                    1          2          3          4          5
     1  C    0.000000
     2  C    1.337924   0.000000
     3  C    3.450788   2.799944   0.000000
     4  C    3.492189   3.200567   1.347025   0.000000
     5  C    3.200567   3.492189   2.500049   1.458789   0.000000
     6  H    2.121090   1.084959   2.835255   3.074508   3.615879
     7  H    1.084959   2.121090   3.948211   3.615879   3.074508
     8  H    1.087175   2.123721   3.979747   4.140455   3.676202
     9  H    3.266738   4.199113   4.123294   3.478901   2.124369
    10  H    4.199113   3.266738   1.086856   2.124369   3.478901
    11  H    3.192080   2.677580   1.084099   2.135114   2.802048
    12  H    4.261198   3.865140   2.094321   1.089814   2.167244
    13  H    3.865140   4.261198   3.420658   2.167244   1.089814
    14  H    2.677580   3.192080   2.835267   2.802048   2.135114
    15  H    2.123721   1.087175   2.876499   3.676202   4.140455
    16  C    2.799944   3.450788   3.040719   2.500049   1.347025
                    6          7          8          9         10
     6  H    0.000000
     7  H    2.482867   0.000000
     8  H    3.094580   1.843911   0.000000
     9  H    4.728068   3.071927   3.171173   0.000000
    10  H    3.071927   4.728068   4.795720   5.202813   0.000000
    11  H    3.104104   3.903812   3.439741   3.891202   1.843295
    12  H    3.443078   4.222268   5.042110   4.288633   2.424158
    13  H    4.222268   3.443078   4.408933   2.424158   4.288633
    14  H    3.903812   3.104104   2.493352   1.843295   3.891202
    15  H    1.843911   3.094580   2.487615   4.795720   3.171173
    16  C    3.948211   2.835255   2.876499   1.086856   4.123294
                   11         12         13         14         15
    11  H    0.000000
    12  H    3.079726   0.000000
    13  H    3.861939   2.405590   0.000000
    14  H    2.257186   3.861939   3.079726   0.000000
    15  H    2.493352   4.408933   5.042110   3.439741   0.000000
    16  C    2.835267   3.420658   2.094321   1.084099   3.979747
                   16
    16  C    0.000000
 Symmetry turned off by external request.
 Stoichiometry    C6H10
 Framework group  CS[X(C6H10)]
 Deg. of freedom    21
 Full point group                 CS      NOp   2
 Rotational constants (GHZ):      4.0215132      2.7827750      1.9099206
 Leave Link  202 at Sun Feb 09 14:50:54 2014, MaxMem=  196608000 cpu:       0.0
 (Enter d:\study\G09W\l601.exe)
 Copying SCF densities to generalized density rwf, IOpCl= 0 IROHF=0.

 **********************************************************************

            Population analysis using the SCF density.

 **********************************************************************

 Alpha  occ. eigenvalues --  -10.19735 -10.19700 -10.19231 -10.19230 -10.18357
 Alpha  occ. eigenvalues --  -10.18272  -0.80831  -0.75432  -0.73125  -0.62654
 Alpha  occ. eigenvalues --   -0.57932  -0.53281  -0.49610  -0.46626  -0.44345
 Alpha  occ. eigenvalues --   -0.42163  -0.41636  -0.36891  -0.35721  -0.35186
 Alpha  occ. eigenvalues --   -0.33336  -0.25302  -0.23504
 Alpha virt. eigenvalues --   -0.04452   0.00733   0.01129   0.01896   0.02150
 Alpha virt. eigenvalues --    0.04411   0.04547   0.05538   0.06157   0.06980
 Alpha virt. eigenvalues --    0.07799   0.07975   0.09573   0.09682   0.11139
 Alpha virt. eigenvalues --    0.11237   0.11400   0.12267   0.12867   0.14978
 Alpha virt. eigenvalues --    0.15589   0.16190   0.16995   0.17813   0.18824
 Alpha virt. eigenvalues --    0.20045   0.20229   0.20815   0.22058   0.25048
 Alpha virt. eigenvalues --    0.25198   0.28856   0.30231   0.30313   0.31485
 Alpha virt. eigenvalues --    0.33061   0.33091   0.36049   0.40077   0.42765
 Alpha virt. eigenvalues --    0.46104   0.54077   0.60155   0.61757   0.64103
 Alpha virt. eigenvalues --    0.67321   0.70198   0.72086   0.72224   0.75818
 Alpha virt. eigenvalues --    0.76178   0.76263   0.77335   0.82692   0.86421
 Alpha virt. eigenvalues --    0.89201   0.92357   0.93511   0.94225   0.95937
 Alpha virt. eigenvalues --    0.98374   1.00293   1.02221   1.03955   1.07140
 Alpha virt. eigenvalues --    1.09206   1.11215   1.11296   1.14596   1.17297
 Alpha virt. eigenvalues --    1.21721   1.24734   1.26447   1.35364   1.39350
 Alpha virt. eigenvalues --    1.47487   1.48956   1.54202   1.57094   1.58115
 Alpha virt. eigenvalues --    1.72144   1.74552   1.81167   1.84544   1.89780
 Alpha virt. eigenvalues --    1.91067   1.98573   2.03695   2.04561   2.14292
 Alpha virt. eigenvalues --    2.16188   2.20096   2.24620   2.28028   2.28402
 Alpha virt. eigenvalues --    2.32078   2.42919   2.55724   2.55845   2.57935
 Alpha virt. eigenvalues --    2.63179   2.71972   2.74749   2.87207   3.08475
 Alpha virt. eigenvalues --    4.14756   4.24436   4.24461   4.25938   4.44215
 Alpha virt. eigenvalues --    4.51357
          Condensed to atoms (all electrons):
              1          2          3          4          5          6
     1  C    5.470752   0.323088  -0.116919  -0.044220  -0.016254  -0.035918
     2  C    0.323088   5.470752   0.106785  -0.016254  -0.044220   0.380418
     3  C   -0.116919   0.106785   5.361345   0.525631  -0.021038  -0.004727
     4  C   -0.044220  -0.016254   0.525631   5.105633   0.273224   0.000670
     5  C   -0.016254  -0.044220  -0.021038   0.273224   5.105633  -0.002212
     6  H   -0.035918   0.380418  -0.004727   0.000670  -0.002212   0.504789
     7  H    0.380418  -0.035918   0.000268  -0.002212   0.000670  -0.006534
     8  H    0.417247  -0.072269   0.006228   0.000572  -0.004005   0.004298
     9  H   -0.004977   0.003124   0.002025   0.016594  -0.030336  -0.000003
    10  H    0.003124  -0.004977   0.362717  -0.030336   0.016594  -0.000138
    11  H   -0.015943   0.007191   0.437369  -0.113527   0.028419  -0.000070
    12  H   -0.003293   0.003840  -0.014499   0.302511  -0.002259   0.000032
    13  H    0.003840  -0.003293  -0.005098  -0.002259   0.302511  -0.000005
    14  H    0.007191  -0.015943  -0.015589   0.028419  -0.113527  -0.000002
    15  H   -0.072269   0.417247  -0.010659  -0.004005   0.000572  -0.035888
    16  C    0.106785  -0.116919  -0.108391  -0.021038   0.525631   0.000268
              7          8          9         10         11         12
     1  C    0.380418   0.417247  -0.004977   0.003124  -0.015943  -0.003293
     2  C   -0.035918  -0.072269   0.003124  -0.004977   0.007191   0.003840
     3  C    0.000268   0.006228   0.002025   0.362717   0.437369  -0.014499
     4  C   -0.002212   0.000572   0.016594  -0.030336  -0.113527   0.302511
     5  C    0.000670  -0.004005  -0.030336   0.016594   0.028419  -0.002259
     6  H   -0.006534   0.004298  -0.000003  -0.000138  -0.000070   0.000032
     7  H    0.504789  -0.035888  -0.000138  -0.000003  -0.000002  -0.000005
     8  H   -0.035888   0.514343   0.000097  -0.000004   0.000013   0.000001
     9  H   -0.000138   0.000097   0.505136   0.000000  -0.000047  -0.000137
    10  H   -0.000003  -0.000004   0.000000   0.505136  -0.036151  -0.006577
    11  H   -0.000002   0.000013  -0.000047  -0.036151   0.517373   0.004958
    12  H   -0.000005   0.000001  -0.000137  -0.006577   0.004958   0.555541
    13  H    0.000032  -0.000006  -0.006577  -0.000137  -0.000011  -0.006946
    14  H   -0.000070  -0.000794  -0.036151  -0.000047   0.002355  -0.000011
    15  H    0.004298  -0.006576  -0.000004   0.000097  -0.000794  -0.000006
    16  C   -0.004727  -0.010659   0.362717   0.002025  -0.015589  -0.005098
             13         14         15         16
     1  C    0.003840   0.007191  -0.072269   0.106785
     2  C   -0.003293  -0.015943   0.417247  -0.116919
     3  C   -0.005098  -0.015589  -0.010659  -0.108391
     4  C   -0.002259   0.028419  -0.004005  -0.021038
     5  C    0.302511  -0.113527   0.000572   0.525631
     6  H   -0.000005  -0.000002  -0.035888   0.000268
     7  H    0.000032  -0.000070   0.004298  -0.004727
     8  H   -0.000006  -0.000794  -0.006576  -0.010659
     9  H   -0.006577  -0.036151  -0.000004   0.362717
    10  H   -0.000137  -0.000047   0.000097   0.002025
    11  H   -0.000011   0.002355  -0.000794  -0.015589
    12  H   -0.006946  -0.000011  -0.000006  -0.005098
    13  H    0.555541   0.004958   0.000001  -0.014499
    14  H    0.004958   0.517373   0.000013   0.437369
    15  H    0.000001   0.000013   0.514343   0.006228
    16  C   -0.014499   0.437369   0.006228   5.361345
 Mulliken atomic charges:
              1
     1  C   -0.402652
     2  C   -0.402652
     3  C   -0.505449
     4  C   -0.019402
     5  C   -0.019402
     6  H    0.195021
     7  H    0.195021
     8  H    0.187401
     9  H    0.188676
    10  H    0.188676
    11  H    0.184456
    12  H    0.171948
    13  H    0.171948
    14  H    0.184456
    15  H    0.187401
    16  C   -0.505449
 Sum of Mulliken atomic charges =   0.00000
 Mulliken charges with hydrogens summed into heavy atoms:
              1
     1  C   -0.020230
     2  C   -0.020230
     3  C   -0.132317
     4  C    0.152546
     5  C    0.152546
    16  C   -0.132317
 Sum of Mulliken charges with hydrogens summed into heavy atoms =   0.00000
 APT atomic charges:
              1
     1  C   -0.850283
     2  C   -0.850283
     3  C   -0.832636
     4  C   -0.519477
     5  C   -0.519477
     6  H    0.365162
     7  H    0.365162
     8  H    0.451853
     9  H    0.578487
    10  H    0.578487
    11  H    0.295369
    12  H    0.511524
    13  H    0.511524
    14  H    0.295369
    15  H    0.451853
    16  C   -0.832636
 Sum of APT charges=   0.00000
 APT Atomic charges with hydrogens summed into heavy atoms:
              1
     1  C   -0.033268
     2  C   -0.033268
     3  C    0.041220
     4  C   -0.007953
     5  C   -0.007953
     6  H    0.000000
     7  H    0.000000
     8  H    0.000000
     9  H    0.000000
    10  H    0.000000
    11  H    0.000000
    12  H    0.000000
    13  H    0.000000
    14  H    0.000000
    15  H    0.000000
    16  C    0.041220
 Sum of APT charges=   0.00000
 Electronic spatial extent (au):  <R**2>=            701.8311
 Charge=              0.0000 electrons
 Dipole moment (field-independent basis, Debye):
    X=             -0.0406    Y=             -0.1479    Z=              0.0000  Tot=              0.1534
 Quadrupole moment (field-independent basis, Debye-Ang):
   XX=            -38.2314   YY=            -44.4370   ZZ=            -36.2081
   XY=              4.4347   XZ=              0.0000   YZ=              0.0000
 Traceless Quadrupole moment (field-independent basis, Debye-Ang):
   XX=              1.3941   YY=             -4.8115   ZZ=              3.4174
   XY=              4.4347   XZ=              0.0000   YZ=              0.0000
 Octapole moment (field-independent basis, Debye-Ang**2):
  XXX=             -1.1245  YYY=            -11.8140  ZZZ=              0.0000  XYY=             -0.8884
  XXY=              0.0939  XXZ=              0.0000  XZZ=             -1.0945  YZZ=              0.1356
  YYZ=              0.0000  XYZ=              0.0000
 Hexadecapole moment (field-independent basis, Debye-Ang**3):
 XXXX=           -124.3143 YYYY=           -584.3267 ZZZZ=           -343.0173 XXXY=             25.8493
 XXXZ=              0.0000 YYYX=             51.1341 YYYZ=              0.0000 ZZZX=              0.0000
 ZZZY=              0.0000 XXYY=           -110.1692 XXZZ=            -82.6562 YYZZ=           -150.2045
 XXYZ=              0.0000 YYXZ=              0.0000 ZZXY=             12.9878
 N-N= 2.146136568321D+02 E-N=-9.708968710295D+02  KE= 2.322037491783D+02
  Exact polarizability:   0.000   0.000   0.000   0.000   0.000   0.000
 Approx polarizability:  90.984  16.258  97.643   0.000   0.000 150.426
 No NMR shielding tensors so no spin-rotation constants.
 Leave Link  601 at Sun Feb 09 14:50:55 2014, MaxMem=  196608000 cpu:       0.0
 (Enter d:\study\G09W\l716.exe)
 Dipole        =-1.59610251D-02-5.82027473D-02-1.39733590D-10
 Polarizability= 0.00000000D+00 0.00000000D+00 0.00000000D+00
                 0.00000000D+00 0.00000000D+00 0.00000000D+00
 -------------------------------------------------------------------
 Center     Atomic                   Forces (Hartrees/Bohr)
 Number     Number              X              Y              Z
 -------------------------------------------------------------------
      1        6          -0.002071308    0.007487251   -0.000999434
      2        6          -0.002071308    0.007487251    0.000999434
      3        6           0.001403995   -0.005843500   -0.001812736
      4        6           0.000405348   -0.001621163   -0.000424795
      5        6           0.000405348   -0.001621163    0.000424795
      6        1          -0.000331268    0.000353347   -0.000180129
      7        1          -0.000331268    0.000353347    0.000180129
      8        1          -0.000003060    0.000631639    0.000132884
      9        1           0.000224552   -0.000710605   -0.000007569
     10        1           0.000224552   -0.000710605    0.000007570
     11        1           0.000340518   -0.000117631   -0.000102694
     12        1           0.000031223   -0.000179338    0.000040395
     13        1           0.000031223   -0.000179338   -0.000040395
     14        1           0.000340518   -0.000117631    0.000102694
     15        1          -0.000003060    0.000631639   -0.000132884
     16        6           0.001403995   -0.005843500    0.001812736
 -------------------------------------------------------------------
 Cartesian Forces:  Max     0.007487251 RMS     0.002093034
 Leave Link  716 at Sun Feb 09 14:50:57 2014, MaxMem=  196608000 cpu:       0.0
 (Enter d:\study\G09W\l9999.exe)

 This type of calculation cannot be archived.


 THE FIRST MORNING OF CREATION WROTE WHAT THE LAST DAWN OF
 RECKONING SHALL READ. -- OMAR KHAYYAM
 Job cpu time:  0 days  0 hours 44 minutes 39.0 seconds.
 File lengths (MBytes):  RWF=     35 Int=      0 D2E=      0 Chk=      6 Scr=      1
 Normal termination of Gaussian 09 at Sun Feb 09 14:50:59 2014.
