Title Card Required                                                     
SP        RB3LYP                                                      6-31G(d)            
Number of atoms                            I                6
Info1-9                                    I   N=           9
          14          13           0           0           0         110
           1          18        -502
Charge                                     I               -1
Multiplicity                               I                1
Number of electrons                        I               20
Number of alpha electrons                  I               10
Number of beta electrons                   I               10
Number of basis functions                  I               38
Number of independent functions            I               38
Number of point charges in /Mol/           I                0
Number of translation vectors              I                0
Atomic numbers                             I   N=           6
           1           1           1           1           6           9
Nuclear charges                            R   N=           6
  1.00000000E+00  1.00000000E+00  1.00000000E+00  1.00000000E+00  6.00000000E+00
  9.00000000E+00
Current cartesian coordinates              R   N=          18
  2.01104655E+00 -1.34181705E+00 -1.39476906E+00  6.09794970E+00 -8.80612378E-04
 -5.53689757E-04  2.01126576E+00  1.87838211E+00 -4.64872629E-01  2.01140182E+00
 -5.37035601E-01  1.85896328E+00  1.30201942E+00 -1.19052746E-04 -1.39839734E-04
 -1.46179576E+00  1.41729460E-04  1.47398638E-04
Force Field                                I                0
Int Atom Types                             I   N=           6
           0           0           0           0           0           0
MM charges                                 R   N=           6
  0.00000000E+00  0.00000000E+00  0.00000000E+00  0.00000000E+00  0.00000000E+00
  0.00000000E+00
Integer atomic weights                     I   N=           6
           1           1           1           1          12          19
Real atomic weights                        R   N=           6
  1.00782504E+00  1.00782504E+00  1.00782504E+00  1.00782504E+00  1.20000000E+01
  1.89984032E+01
Atom fragment info                         I   N=           6
           0           0           0           0           0           0
Atom residue num                           I   N=           6
           0           0           0           0           0           0
Nuclear spins                              I   N=           6
           1           1           1           1           0           1
Nuclear ZEff                               R   N=           6
 -1.00000000E+00 -1.00000000E+00 -1.00000000E+00 -1.00000000E+00 -3.60000000E+00
 -6.75000000E+00
Nuclear ZNuc                               R   N=           6
  1.00000000E+00  1.00000000E+00  1.00000000E+00  1.00000000E+00  6.00000000E+00
  9.00000000E+00
Nuclear QMom                               R   N=           6
  0.00000000E+00  0.00000000E+00  0.00000000E+00  0.00000000E+00  0.00000000E+00
  0.00000000E+00
Nuclear GFac                               R   N=           6
  2.79284600E+00  2.79284600E+00  2.79284600E+00  2.79284600E+00  0.00000000E+00
  2.62886700E+00
MicOpt                                     I   N=           6
          -1          -1          -1          -1          -1          -1
Number of contracted shells                I               16
Number of primitive shells                 I               38
Pure/Cartesian d shells                    I                1
Pure/Cartesian f shells                    I                0
Highest angular momentum                   I                2
Largest degree of contraction              I                6
Shell types                                I   N=          16
           0           0           0           0           0           0
           0           0           0          -1          -1           2
           0          -1          -1           2
Number of primitives per shell             I   N=          16
           3           1           3           1           3           1
           3           1           6           3           1           1
           6           3           1           1
Shell to atom map                          I   N=          16
           1           1           2           2           3           3
           4           4           5           5           5           5
           6           6           6           6
Primitive exponents                        R   N=          38
  1.87311370E+01  2.82539436E+00  6.40121692E-01  1.61277759E-01  1.87311370E+01
  2.82539436E+00  6.40121692E-01  1.61277759E-01  1.87311370E+01  2.82539436E+00
  6.40121692E-01  1.61277759E-01  1.87311370E+01  2.82539436E+00  6.40121692E-01
  1.61277759E-01  3.04752488E+03  4.57369518E+02  1.03948685E+02  2.92101553E+01
  9.28666296E+00  3.16392696E+00  7.86827235E+00  1.88128854E+00  5.44249258E-01
  1.68714478E-01  8.00000000E-01  7.00171309E+03  1.05136609E+03  2.39285690E+02
  6.73974453E+01  2.15199573E+01  7.40310130E+00  2.08479528E+01  4.80830834E+00
  1.34406986E+00  3.58151393E-01  8.00000000E-01
Contraction coefficients                   R   N=          38
  3.34946043E-02  2.34726953E-01  8.13757326E-01  1.00000000E+00  3.34946043E-02
  2.34726953E-01  8.13757326E-01  1.00000000E+00  3.34946043E-02  2.34726953E-01
  8.13757326E-01  1.00000000E+00  3.34946043E-02  2.34726953E-01  8.13757326E-01
  1.00000000E+00  1.83473713E-03  1.40373228E-02  6.88426223E-02  2.32184443E-01
  4.67941348E-01  3.62311985E-01 -1.19332420E-01 -1.60854152E-01  1.14345644E+00
  1.00000000E+00  1.00000000E+00  1.81961690E-03  1.39160796E-02  6.84053245E-02
  2.33185760E-01  4.71267439E-01  3.56618546E-01 -1.08506975E-01 -1.46451658E-01
  1.12868858E+00  1.00000000E+00  1.00000000E+00
P(S=P) Contraction coefficients            R   N=          38
  0.00000000E+00  0.00000000E+00  0.00000000E+00  0.00000000E+00  0.00000000E+00
  0.00000000E+00  0.00000000E+00  0.00000000E+00  0.00000000E+00  0.00000000E+00
  0.00000000E+00  0.00000000E+00  0.00000000E+00  0.00000000E+00  0.00000000E+00
  0.00000000E+00  0.00000000E+00  0.00000000E+00  0.00000000E+00  0.00000000E+00
  0.00000000E+00  0.00000000E+00  6.89990666E-02  3.16423961E-01  7.44308291E-01
  1.00000000E+00  0.00000000E+00  0.00000000E+00  0.00000000E+00  0.00000000E+00
  0.00000000E+00  0.00000000E+00  0.00000000E+00  7.16287242E-02  3.45912103E-01
  7.22469956E-01  1.00000000E+00  0.00000000E+00
Coordinates of each shell                  R   N=          48
  2.01104655E+00 -1.34181705E+00 -1.39476906E+00  2.01104655E+00 -1.34181705E+00
 -1.39476906E+00  6.09794970E+00 -8.80612378E-04 -5.53689757E-04  6.09794970E+00
 -8.80612378E-04 -5.53689757E-04  2.01126576E+00  1.87838211E+00 -4.64872629E-01
  2.01126576E+00  1.87838211E+00 -4.64872629E-01  2.01140182E+00 -5.37035601E-01
  1.85896328E+00  2.01140182E+00 -5.37035601E-01  1.85896328E+00  1.30201942E+00
 -1.19052746E-04 -1.39839734E-04  1.30201942E+00 -1.19052746E-04 -1.39839734E-04
  1.30201942E+00 -1.19052746E-04 -1.39839734E-04  1.30201942E+00 -1.19052746E-04
 -1.39839734E-04 -1.46179576E+00  1.41729460E-04  1.47398638E-04 -1.46179576E+00
  1.41729460E-04  1.47398638E-04 -1.46179576E+00  1.41729460E-04  1.47398638E-04
 -1.46179576E+00  1.41729460E-04  1.47398638E-04
Constraint Structure                       R   N=          18
  2.01104655E+00 -1.34181705E+00 -1.39476906E+00  6.09794970E+00 -8.80612378E-04
 -5.53689757E-04  2.01126576E+00  1.87838211E+00 -4.64872629E-01  2.01140182E+00
 -5.37035601E-01  1.85896328E+00  1.30201942E+00 -1.19052746E-04 -1.39839734E-04
 -1.46179576E+00  1.41729460E-04  1.47398638E-04
Num ILSW                                   I              100
ILSW                                       I   N=         100
           0           1           0           0           2           0
           0           0           0           0         402          -1
           0           0           0           0           0           0
           0           0           1           0           0           0
           1           1           0           0           0           0
           0           0      100000           0          -1           0
           0           0           0           0           0           0
           0           0           0           1           0           0
           0           0           1           0           0           0
           0           0           4          41           0           0
           0           0           5           0           0           0
           0           0           0           0           0           0
           0           0           0           0           0           0
           0           0           0           0           0           0
           0           0           0           0           0           0
           0           0           0           0           0           0
           0           0           0           0
Num RLSW                                   I               41
RLSW                                       R   N=          41
  8.00000000E-01  7.20000000E-01  1.00000000E+00  8.10000000E-01  2.00000000E-01
  0.00000000E+00  0.00000000E+00  1.00000000E+00  0.00000000E+00  0.00000000E+00
  0.00000000E+00  0.00000000E+00  1.00000000E+00  0.00000000E+00  0.00000000E+00
  0.00000000E+00  0.00000000E+00  1.00000000E+00  0.00000000E+00  0.00000000E+00
  0.00000000E+00  0.00000000E+00  1.00000000E+00  0.00000000E+00  0.00000000E+00
  0.00000000E+00  0.00000000E+00  1.00000000E+00  0.00000000E+00  0.00000000E+00
  0.00000000E+00  0.00000000E+00  1.00000000E+00  0.00000000E+00  0.00000000E+00
  0.00000000E+00  0.00000000E+00  0.00000000E+00  1.00000000E+00  1.00000000E+00
  0.00000000E+00
MxBond                                     I                4
NBond                                      I   N=           6
           1           0           1           1           4           1
IBond                                      I   N=          24
           5           0           0           0           0           0
           0           0           5           0           0           0
           5           0           0           0           1           3
           4           6           5           0           0           0
RBond                                      R   N=          24
  1.00000000E+00  0.00000000E+00  0.00000000E+00  0.00000000E+00  0.00000000E+00
  0.00000000E+00  0.00000000E+00  0.00000000E+00  1.00000000E+00  0.00000000E+00
  0.00000000E+00  0.00000000E+00  1.00000000E+00  0.00000000E+00  0.00000000E+00
  0.00000000E+00  1.00000000E+00  1.00000000E+00  1.00000000E+00  1.00000000E+00
  1.00000000E+00  0.00000000E+00  0.00000000E+00  0.00000000E+00
Virial Ratio                               R      2.005841394058401E+00
SCF Energy                                 R     -1.402295274446606E+02
Total Energy                               R     -1.402295274446606E+02
RMS Density                                R      9.417136876265862E-09
External E-field                           R   N=          35
  0.00000000E+00  0.00000000E+00  0.00000000E+00  0.00000000E+00  0.00000000E+00
  0.00000000E+00  0.00000000E+00  0.00000000E+00  0.00000000E+00  0.00000000E+00
  0.00000000E+00  0.00000000E+00  0.00000000E+00  0.00000000E+00  0.00000000E+00
  0.00000000E+00  0.00000000E+00  0.00000000E+00  0.00000000E+00  0.00000000E+00
  0.00000000E+00  0.00000000E+00  0.00000000E+00  0.00000000E+00  0.00000000E+00
  0.00000000E+00  0.00000000E+00  0.00000000E+00  0.00000000E+00  0.00000000E+00
  0.00000000E+00  0.00000000E+00  0.00000000E+00  0.00000000E+00  0.00000000E+00
IOpCl                                      I                0
IROHF                                      I                0
Alpha Orbital Energies                     R   N=          38
 -2.44580359E+01 -1.00374665E+01 -9.49563224E-01 -4.82297327E-01 -2.57372082E-01
 -2.52719224E-01 -2.52715354E-01 -1.35337891E-01 -1.35336946E-01  1.20994195E-01
  3.03729893E-01  3.42126556E-01  3.69550956E-01  3.69557242E-01  7.45291735E-01
  7.45294710E-01  7.53510408E-01  1.05755623E+00  1.05756249E+00  1.08081112E+00
  1.17703983E+00  1.25036439E+00  1.35530421E+00  1.44536584E+00  1.44537536E+00
  1.72805406E+00  1.72805943E+00  1.95715198E+00  2.03880673E+00  2.03881032E+00
  2.19933009E+00  2.36112102E+00  2.36116738E+00  2.57581803E+00  2.57584331E+00
  3.14317457E+00  4.16444701E+00  4.43766655E+00
Alpha MO coefficients                      R   N=        1444
  6.91572895E-05  1.34765020E-05  1.09509276E-05 -4.23592446E-05  6.91599737E-05
  1.34681760E-05  6.91574033E-05  1.34752726E-05  3.35061029E-06 -7.85952376E-05
 -4.75843222E-04  4.33748521E-08  4.89388942E-08 -9.47163026E-04  4.64993589E-04
 -4.37427622E-08 -4.77083425E-08  7.05825561E-04  4.81134178E-05  4.81134925E-05
 -6.94746234E-08 -7.86092584E-08  9.23896271E-10  9.93012456E-01  1.96335166E-02
  5.43150622E-04 -5.21225172E-08 -5.63960549E-08  1.51152431E-02 -1.77728267E-04
  1.80018975E-08  1.85892692E-08 -8.31910386E-03 -7.96233916E-03 -7.96233925E-03
  3.98993084E-08  4.30772533E-08  2.88314573E-11 -1.68086393E-04  2.55916323E-03
  1.02165496E-05  9.81855316E-05 -1.68115666E-04  2.55934092E-03 -1.68104000E-04
  2.55921687E-03  9.92924032E-01  4.85237720E-02 -8.23058756E-04  1.70443020E-07
  6.55292663E-08 -1.27772864E-02 -7.26160104E-04 -1.00585918E-07  1.06211402E-07
 -8.84134482E-03 -9.09420704E-03 -9.09419653E-03 -3.37521628E-08 -2.34614202E-08
 -3.88561556E-09 -1.25241153E-04 -4.09575241E-04  5.58679267E-05 -1.05985476E-09
 -4.37592533E-09  2.12370060E-03 -4.60257967E-04  3.26604885E-08  4.10722069E-08
 -1.14795945E-03 -1.83684883E-04 -1.83679895E-04  9.87444652E-08  1.15487270E-07
  4.20270515E-09  1.32398537E-02  2.70068981E-03  2.25679766E-04 -4.45035232E-04
  1.32419112E-02  2.70231275E-03  1.32407496E-02  2.70145721E-03 -4.92553192E-02
  8.84682322E-02 -7.45246189E-02  8.11738385E-06  7.89452189E-06  4.19659212E-02
 -1.09590241E-02  1.17362124E-07  6.14490749E-07  1.40828544E-02 -6.44028315E-03
 -6.44034303E-03 -2.43232781E-06 -2.49227016E-06 -4.23725190E-08 -2.26430317E-01
  4.98902239E-01  6.76631602E-02 -6.10320294E-06 -7.01385932E-06  4.93988149E-01
  3.44283079E-02 -2.69279497E-06 -3.46450534E-06  2.32488133E-02  5.84001379E-03
  5.84001867E-03 -1.84766760E-06 -2.08845133E-06  4.66719129E-08  1.41274972E-01
  4.63334060E-02  6.03962632E-03  2.91615880E-03  1.41283101E-01  4.63394716E-02
  1.41278430E-01  4.63346783E-02 -1.89509483E-01  3.89776653E-01  5.29997263E-02
  5.26853186E-06 -4.63936342E-06  3.23766649E-01  5.48187071E-03  2.36189421E-06
 -5.69835515E-07 -1.26931539E-02  4.50590599E-03  4.50594110E-03  1.32632782E-06
  2.05721517E-06 -5.06938567E-07  6.40464510E-02 -1.20584392E-01  1.80629944E-01
 -1.43677632E-05 -1.88122582E-05 -2.48619477E-01  1.05666994E-01 -8.87365853E-06
 -1.13375754E-05  2.45582100E-02  6.81375484E-03  6.81367541E-03 -1.71556385E-06
 -2.16120217E-06 -7.74200243E-08 -8.52622372E-02 -6.73942224E-02 -1.04481122E-02
 -1.67239662E-02 -8.52157906E-02 -6.73670421E-02 -8.52518334E-02 -6.73869091E-02
  1.83270775E-02 -4.02843564E-02 -3.27574539E-01  7.34563941E-05  3.19788577E-05
 -2.08836614E-02 -8.99544577E-02  2.91468787E-05  6.99441599E-06  2.90322172E-02
 -1.35521718E-02 -1.35554901E-02 -4.57772330E-06 -5.19298855E-06 -1.41537822E-06
  3.71257485E-02 -3.98435724E-02  5.27919014E-01 -1.25023666E-05 -5.82159600E-05
 -2.03632572E-01  3.50396666E-01 -7.93566537E-06 -3.91488753E-05  3.53446616E-02
  1.45177175E-02  1.45175824E-02 -7.48628419E-07 -2.66433872E-06 -7.27330306E-08
 -3.40324577E-02 -2.29410476E-02 -7.98261143E-07  6.16620414E-07  1.81370409E-01
  1.22274648E-01 -1.47312603E-01 -9.93022748E-02  1.97971956E-06 -3.37583871E-06
  3.29501691E-05  3.07669811E-01 -2.05370498E-01 -1.34729417E-05  9.95323427E-06
  1.64248111E-01 -1.09637880E-01 -3.50109177E-06  1.41491102E-02 -1.41447992E-02
 -3.76110351E-04  2.49529136E-04 -2.28339878E-03 -3.71410755E-06  3.21952406E-06
 -4.89107521E-05  3.18862620E-01 -2.12839042E-01  2.15978185E-05 -3.25778019E-05
  2.17873899E-01 -1.45429195E-01 -3.70535469E-06  5.07065227E-04 -5.11046184E-04
  1.21850284E-02 -8.13341657E-03 -8.30462457E-05 -1.89753578E-01 -1.27910012E-01
 -2.97670802E-07  4.01022544E-07  6.54040713E-02  4.40942636E-02  1.24362709E-01
  8.38325295E-02  1.18375310E-06 -1.32205555E-06  6.54009420E-05  2.05365435E-01
  3.07667057E-01 -1.02495942E-05  3.13405782E-05  1.09640544E-01  1.64260278E-01
 -2.01042104E-06 -1.97488169E-03  1.97766918E-03 -2.53369785E-04 -3.77239314E-04
 -1.63332613E-02 -2.32420947E-06  1.04335810E-06  1.92788905E-05  2.12846856E-01
  3.18871260E-01  1.53742769E-05  1.31763607E-05  1.45434755E-01  2.17878778E-01
  2.53507116E-07 -7.43851267E-05  6.73249296E-05  8.13330375E-03  1.21846679E-02
 -5.91680848E-04  5.04501964E-02  5.65024528E-02 -1.79046326E-06 -2.84043025E-06
  1.46840032E-01  1.64459324E-01 -1.97286247E-01 -2.20954611E-01  8.64902971E-07
 -1.87192540E-06 -1.38627206E-05  1.52253327E-01 -2.44991131E-01 -4.23737993E-06
 -1.12213320E-07  2.98607101E-02 -4.80539314E-02 -2.67466315E-06  1.18104233E-02
 -1.18075233E-02  1.38135188E-02 -2.22264701E-02  4.03010214E-03 -9.96271053E-08
 -1.54695960E-06  1.48011402E-05 -2.82540088E-01  4.54620754E-01  3.61997658E-06
  1.17462913E-05 -2.11677473E-01  3.40599908E-01 -4.63887259E-07  7.20812096E-04
 -7.23103909E-04 -3.68090885E-03  5.92291746E-03  2.45913650E-04  1.98683396E-01
  2.22521759E-01  2.21738899E-06  2.83338718E-06 -1.43032112E-01 -1.60193283E-01
 -5.56535023E-02 -6.23280346E-02 -2.54019826E-07  2.89965888E-06 -3.57970312E-05
 -2.44991946E-01 -1.52259926E-01 -4.07270999E-06 -1.07696411E-05 -4.80565315E-02
 -2.98702243E-02 -3.91714237E-06 -3.48727739E-03  3.49337140E-03 -2.22241465E-02
 -1.38115620E-02  1.36427867E-02 -4.07304277E-07 -1.13761108E-06  8.53420098E-05
  4.54618209E-01  2.82531021E-01  5.44290339E-06  6.34850135E-05  3.40598531E-01
  2.11671777E-01  5.15041385E-07 -2.15523753E-04  2.10897699E-04  5.92290785E-03
  3.68100801E-03  8.31646856E-04 -1.96959280E-02  1.15859448E-01  2.61167266E-01
  7.42870268E-01 -1.96957119E-02  1.15845526E-01 -1.96972260E-02  1.15854943E-01
  4.75386086E-02 -7.70588571E-02  2.98941418E-02  1.69280466E-05 -4.80156361E-06
 -4.14573696E-01  1.13594045E-01  9.24127129E-06 -1.12161675E-05  1.90620616E-02
 -4.03398435E-03 -4.03524501E-03 -1.99336256E-06 -2.45721870E-06 -2.27158612E-07
 -1.77631983E-02  1.13020555E-02  1.06608086E-01 -1.79649590E-05 -1.05932088E-05
  1.84029811E-01  1.32051689E-01 -2.02095791E-05 -1.35921477E-05 -1.06895881E-02
 -1.28868302E-02 -1.28868056E-02  4.86984268E-08 -3.19680894E-07  3.49829541E-08
 -1.14444855E-02 -8.59102145E-01 -1.04759433E-02 -7.73476507E-02 -1.14667111E-02
 -8.59321136E-01 -1.14510991E-02 -8.59131392E-01 -5.68354443E-02  7.28805348E-02
  4.09847762E-01  8.35206642E-06 -4.99891466E-05  1.33067684E+00  1.04492847E+00
  4.10908490E-05 -1.23304168E-04  2.21283438E-03 -1.45796919E-02 -1.45778139E-02
 -4.97858164E-07 -1.51605374E-06  9.73830263E-07 -5.31411642E-02  9.27900764E-02
  1.93852744E-01 -2.65899270E-05 -1.88435493E-05  4.75115223E-01  2.98303098E-01
 -4.22476699E-05 -2.85513545E-05  3.72939244E-03 -1.53104766E-02 -1.53097800E-02
 -1.40536355E-06 -2.18355823E-06  3.50625200E-07 -4.56111710E-02 -8.10943566E-01
  1.09771475E-01  3.29736890E-01 -4.55912626E-02 -8.11090198E-01 -4.55985834E-02
 -8.10813581E-01 -1.57559629E-01  2.44597605E-01 -3.15577639E-01  5.39600040E-05
  7.05852700E-07  1.98241397E+00 -1.95999041E-01  1.01718758E-04 -6.39208795E-05
 -3.60059632E-02  1.33141909E-03  1.33094946E-03  3.40313293E-06  4.56299841E-06
 -1.57065802E-06  5.78597373E-02 -1.01830042E-01 -3.11624802E-01  3.09865719E-05
  3.98462580E-05 -4.92837627E-01 -3.95447622E-01  3.47046262E-05  5.23122863E-05
  2.39302606E-02  9.37077925E-03  9.37168013E-03 -1.71896167E-06 -2.20976589E-06
 -2.91516747E-08 -6.54273928E-02 -1.23952864E+00  9.29328273E-06  6.12794713E-05
  9.08548430E-02  1.72147911E+00 -2.54524798E-02 -4.82279355E-01 -1.23975442E-05
  2.63777919E-05 -1.50995871E-05 -4.37060317E-01 -2.72270380E-03  1.74671273E-04
  4.15584622E-05 -1.31174390E+00 -8.15455161E-03 -1.52566522E-06  1.10135916E-02
 -1.10164193E-02  3.17274716E-03  1.80737100E-05 -1.14689324E-02 -3.77600082E-06
 -8.86980519E-06  8.66406449E-06  9.63945323E-02  6.04298414E-04  7.32207757E-05
  3.61190555E-05  1.57560970E-01  9.84251402E-04 -5.21432024E-06  4.89666124E-03
 -4.91137400E-03 -5.84800548E-03 -3.76944335E-05 -5.10369425E-03 -6.71519773E-02
 -1.27224581E+00 -7.27123754E-06 -2.55773616E-05 -2.30687118E-02 -4.37164249E-01
  9.02329299E-02  1.70962305E+00  1.13748584E-05 -1.74162601E-05 -2.58852869E-05
  2.72069809E-03 -4.37062991E-01 -1.70234683E-04 -1.38084187E-04  8.18400084E-03
 -1.31174252E+00  2.66572433E-06 -9.93094060E-03  9.93102600E-03 -2.15362447E-05
  3.17406785E-03 -1.27226360E-02 -3.36484457E-06  4.56219844E-06  2.83245954E-05
 -5.96558784E-04  9.64003938E-02  3.00030790E-05  3.97840550E-05 -9.78277339E-04
  1.57566529E-01 -3.60657390E-06 -4.42163799E-03  4.42037135E-03  3.51385832E-05
 -5.84851630E-03 -5.66106913E-03  3.46074195E-01  3.38363591E-01 -5.40721446E-05
 -1.24706138E-04 -4.16483257E-01 -4.07057246E-01  7.03731493E-02  6.88971697E-02
 -9.91065165E-07  2.94858291E-04 -6.96708455E-04 -7.49398358E-01 -9.23263487E-02
 -5.74570112E-04  9.91024067E-04  1.66614556E+00  2.05251750E-01 -2.21964680E-05
 -5.48602296E-02  5.49030343E-02 -3.45923714E-02 -4.25307958E-03  7.21458935E-02
 -8.39243315E-06  3.62815987E-06 -1.87864724E-04 -1.74077353E-01 -2.14499053E-02
  3.69058679E-04  1.33462202E-04 -1.44368515E-01 -1.77841559E-02  9.25952321E-05
 -7.35732156E-03  7.30585537E-03 -8.96378133E-03 -1.10138702E-03  9.63751462E-03
  2.81089587E-01  2.74796559E-01 -1.00097748E-05 -3.21348546E-05  1.59165815E-01
  1.55645075E-01 -4.40263861E-01 -4.30387309E-01  1.14418243E-06  4.55002798E-05
 -1.79982762E-04  9.23270147E-02 -7.49397234E-01 -1.08133676E-04  3.19062709E-04
 -2.05294322E-01  1.66616639E+00 -8.01657152E-06  6.24794146E-02 -6.24653838E-02
  4.27197342E-03 -3.46020652E-02  6.33739384E-02 -1.93774580E-06  5.12272188E-06
 -4.38782893E-05  2.14446211E-02 -1.74086151E-01  6.82837229E-05  1.66127567E-05
  1.77885274E-02 -1.44367429E-01  1.68721734E-05  8.34305019E-03 -8.34748968E-03
  1.10701307E-03 -8.96178032E-03  8.46536809E-03 -1.04889991E-02  1.15214076E-01
 -7.93090130E-02 -2.16590689E-01 -9.96975175E-03  1.15759389E-01 -1.02176743E-02
  1.15495811E-01  3.78806169E-03  4.30491625E-01 -9.28612451E-01  5.63542947E-04
  2.42207943E-04 -9.27208796E-01  1.34968779E+00 -1.21528760E-03 -4.75435147E-04
 -3.51670976E-02  2.48071838E-02  2.47483703E-02  3.16047984E-05  1.54346578E-05
 -5.78227330E-05 -1.79130890E-02  2.10158872E-02 -2.54858412E-01  1.39298270E-04
  6.17561336E-05  6.13015687E-01  2.69929119E-01  6.56103893E-05  6.24218336E-07
  1.48445705E-01 -4.04038960E-02 -4.04119789E-02 -1.54250796E-05 -2.08974673E-05
 -7.75652169E-06 -7.85374214E-01  1.57863729E+00  6.45832692E-05 -6.26552504E-05
  6.07652407E-01 -1.22115071E+00  1.77923063E-01 -3.57472754E-01  1.08754580E-05
  1.50601337E-05 -9.28219479E-05 -7.19962408E-01 -3.92160444E-01 -1.08822199E-04
  9.00833912E-05  1.13649034E+00  6.19055068E-01  1.50763385E-05  4.49244808E-02
 -4.49274424E-02  1.23718510E-01  6.73837989E-02 -1.44542022E-01  2.30037633E-06
  1.13430415E-04  1.03607813E-05  7.88362066E-02  4.29377525E-02 -1.97980009E-04
  4.84392969E-06 -1.21859239E-01 -6.63784688E-02  3.01812103E-05 -3.06859505E-03
  3.18368219E-03 -7.54757752E-02 -4.11123452E-02  1.00770383E-02  2.48236456E-01
 -4.98737649E-01  1.05200670E-04 -7.66653352E-05  5.56299074E-01 -1.11787911E+00
 -8.04129477E-01  1.61638295E+00  1.71137559E-05 -7.61077339E-05  3.94331865E-06
 -3.92163839E-01  7.19964355E-01  6.34215219E-05 -9.17653492E-05  6.19036568E-01
 -1.13650025E+00 -3.95955136E-05  1.25172674E-01 -1.25131373E-01  6.74104569E-02
 -1.23747235E-01  5.18732340E-02  3.28592045E-06  1.30224104E-04 -4.41971930E-06
  4.29468210E-02 -7.88373845E-02 -2.36988246E-04  2.27981027E-05 -6.63759061E-02
  1.21862156E-01  6.37760162E-05 -8.65391766E-03  8.75835933E-03 -4.11127675E-02
  7.54796046E-02 -3.61545712E-03 -6.39381355E-01  3.00293713E-01 -5.18677316E-01
  2.75837346E-01 -6.39155357E-01  2.99822371E-01 -6.39489729E-01  3.00521442E-01
 -8.22860159E-02  2.22284932E-01  1.71522960E-01 -1.60207018E-04  9.43982935E-05
 -1.34463077E-02  1.55459290E-01  2.58162514E-04 -1.96769117E-04  1.22010908E-01
 -7.51846906E-02 -7.52507744E-02  2.61676961E-05 -3.92632249E-05 -1.58319926E-06
 -1.75535247E-02 -5.98306214E-01  1.44715173E-02  2.73253005E-05 -8.78884710E-06
  1.09265965E+00 -7.99195368E-02 -3.24720296E-05  2.45397060E-05 -2.68945546E-01
 -2.56817850E-01 -2.56811229E-01 -2.05836424E-05  1.18429299E-05  2.00793481E-06
  9.99019911E-02 -1.15910402E+00 -8.04365324E-02 -3.88882991E-02  9.99391151E-02
 -1.15922073E+00  9.99499366E-02 -1.15921452E+00 -2.72519557E-02 -1.69796700E+00
 -4.55343338E-01  1.35166420E-05  2.68016147E-05  4.04014187E+00  9.57723261E-01
 -3.12921722E-06 -6.82997949E-05 -3.13610620E-02 -9.59529198E-02 -9.59476005E-02
  4.40411477E-06 -9.25218163E-07 -2.79124490E-06 -2.76524195E-02 -7.45712451E-01
  2.14667873E-01  3.90937899E-06 -1.48126359E-05  1.24591067E+00 -3.53405019E-01
  9.80011562E-06  2.93982064E-05 -4.03567099E-01 -3.06698988E-01 -3.06696640E-01
  4.72369919E-06  7.83925685E-06  2.66412951E-06 -3.43385511E-01  1.67877724E-01
  1.21487408E+00 -1.20083797E+00 -3.43389973E-01  1.67803071E-01 -3.43388626E-01
  1.67880636E-01 -4.48598505E-02 -9.49353793E-02 -3.89755389E-02  9.83724737E-06
  8.48675402E-06  2.90546385E-01  4.74030063E-01 -6.76233597E-06 -5.94084153E-05
  2.50156167E-02 -5.56001271E-02 -5.55849576E-02  1.35829657E-05 -9.49977449E-06
  1.03493691E-05 -1.14455695E-02 -2.21029967E-01 -6.14658238E-03  2.21049118E-05
  2.73082129E-06  5.26401963E-01  1.58449771E-02 -2.59373533E-05 -3.07235803E-06
 -8.36544387E-02 -1.00773420E-01 -1.00768719E-01 -7.73070365E-06 -2.05303303E-06
  2.39402500E-06 -2.18537400E-01 -5.07064450E-01 -8.29023211E-02  4.59862335E-02
 -2.18577855E-01 -5.07109446E-01 -2.18551048E-01 -5.07098353E-01 -6.60851876E-02
 -1.04287268E+00  9.66432210E-02 -9.57019921E-06 -1.12260407E-05  2.58014069E+00
  7.32992677E-02  7.02313992E-05  1.34103753E-05 -1.83865879E-01 -2.15125515E-02
 -2.14883551E-02  3.51465588E-05  2.73029055E-05  2.60110283E-05  6.00797411E-02
  9.59852294E-01 -6.51433097E-01  1.15014268E-04  1.04899668E-04 -2.19293977E+00
  6.20619109E-01 -1.23345606E-04 -1.06981062E-04  3.27195034E-01  5.08415818E-01
  5.08421552E-01  1.66716158E-05  1.95160026E-05  5.16704929E-06 -7.50958871E-02
 -7.44341935E-02  2.31219021E-05 -3.74319940E-05  1.48179757E-01  1.46789847E-01
 -7.31713009E-02 -7.25192127E-02 -6.65400229E-06 -1.00309285E-04 -4.00615596E-06
  1.88022697E-02 -4.49823256E-03  2.48713322E-04  4.61975310E-05 -5.10445889E-01
  1.22193816E-01 -2.49995340E-05  1.61150014E-01 -1.61143292E-01 -1.56778291E-01
  3.75063516E-02 -9.98156577E-02 -9.48984877E-08  5.48173710E-06 -9.58386912E-05
 -8.69485246E-01  2.08145598E-01 -9.54336218E-06  1.13050755E-04  1.05159165E+00
 -2.51739337E-01 -8.62097817E-06  2.90859480E-02 -2.90712171E-02 -8.81108084E-03
  2.10296940E-03 -1.80143221E-02 -1.27816490E-01 -1.26704786E-01  2.34546583E-06
 -8.54374323E-06 -1.13394210E-03 -1.13897417E-03  1.28890688E-01  1.27725322E-01
 -4.93943238E-06 -7.52753107E-05  4.52002548E-06  4.50786228E-03  1.88186501E-02
  1.79614778E-04 -2.48643533E-05 -1.22211720E-01 -5.10501632E-01 -4.30075916E-05
 -8.64566846E-02  8.64845883E-02 -3.75541058E-02 -1.56769281E-01 -1.86046375E-01
  5.01359875E-07  1.78850801E-05 -1.49666034E-04 -2.08147916E-01 -8.69486893E-01
 -3.85352593E-05  1.78018809E-04  2.51746805E-01  1.05160786E+00 -4.96078219E-06
 -1.55901898E-02  1.56163349E-02 -2.11984361E-03 -8.82877894E-03 -3.35760294E-02
  4.85614043E-02 -8.17924576E-02 -2.10210400E-05  3.35774352E-05 -1.05152580E-01
  1.77225143E-01  5.66482089E-02 -9.54210589E-02  2.90187762E-06  1.38620864E-05
  2.55063780E-06  1.49247837E-01 -4.40255010E-02 -2.91376042E-05 -4.99829117E-05
 -1.81721047E-01  5.36053163E-02  5.40107804E-05 -2.86829761E-01  2.86786408E-01
  5.82006153E-01 -1.71633645E-01  1.56073054E-01  2.28961822E-06  4.95094477E-05
  1.34753796E-05 -1.97526830E-01  5.82672101E-02 -1.03649880E-04 -1.67763994E-05
  3.49772128E-01 -1.03176324E-01 -2.92048524E-05 -7.11435357E-02  7.12286513E-02
 -5.22873035E-01  1.54246012E-01  3.88278921E-02  9.34355403E-02 -1.57413438E-01
 -4.79946336E-06  9.38040835E-06 -4.66098868E-03  7.87286208E-03 -8.87474289E-02
  1.49557645E-01  1.61742873E-06  9.17686804E-06  1.64128728E-05  4.40237158E-02
  1.49248023E-01 -2.34475768E-05 -4.47497483E-05 -5.35996983E-02 -1.81715872E-01
  1.28981160E-04  1.35199824E-01 -1.35321770E-01  1.71725304E-01  5.82017218E-01
  3.31090606E-01  1.16080741E-06  2.74744320E-05 -1.20936740E-05 -5.82596685E-02
 -1.97511932E-01 -5.59025561E-05  2.50551677E-05  1.03165871E-01  3.49750324E-01
 -1.03497457E-04  3.36301332E-02 -3.34965704E-02 -1.54218291E-01 -5.22854324E-01
  8.23484651E-02  2.44448610E-01  3.54687172E-01  8.06826584E-02 -1.44595289E-01
  2.44400535E-01  3.54701285E-01  2.44424527E-01  3.54694954E-01  5.78397343E-02
  7.79245376E-01  6.30460249E-02  4.22689281E-06 -7.74776674E-06 -2.67106259E+00