Title Card Required                                                     
SP        RB3LYP                                                      6-31G(d)            
Number of atoms                            I                6
Info1-9                                    I   N=           9
          21          13           0           0           0         110
           1          18        -502
Charge                                     I               -1
Multiplicity                               I                1
Number of electrons                        I               20
Number of alpha electrons                  I               10
Number of beta electrons                   I               10
Number of basis functions                  I               38
Number of independent functions            I               38
Number of point charges in /Mol/           I                0
Number of translation vectors              I                0
Atomic numbers                             I   N=           6
           1           1           1           1           6           9
Nuclear charges                            R   N=           6
  1.00000000E+00  1.00000000E+00  1.00000000E+00  1.00000000E+00  6.00000000E+00
  9.00000000E+00
Current cartesian coordinates              R   N=          18
 -1.41943224E+00 -1.83946039E-01  1.86330794E+00 -4.37031112E+00 -7.51648117E-03
  9.26471268E-03 -1.44520558E+00  1.71509057E+00 -7.76565007E-01 -1.42643345E+00
 -1.52349522E+00 -1.09924735E+00 -2.27246278E+00 -4.16672020E-04  4.56021939E-04
  2.47735101E+00  2.63022386E-04  5.59523103E-05
Force Field                                I                0
Int Atom Types                             I   N=           6
           0           0           0           0           0           0
MM charges                                 R   N=           6
  0.00000000E+00  0.00000000E+00  0.00000000E+00  0.00000000E+00  0.00000000E+00
  0.00000000E+00
Integer atomic weights                     I   N=           6
           1           1           1           1          12          19
Real atomic weights                        R   N=           6
  1.00782504E+00  1.00782504E+00  1.00782504E+00  1.00782504E+00  1.20000000E+01
  1.89984032E+01
Atom fragment info                         I   N=           6
           0           0           0           0           0           0
Atom residue num                           I   N=           6
           0           0           0           0           0           0
Nuclear spins                              I   N=           6
           1           1           1           1           0           1
Nuclear ZEff                               R   N=           6
 -1.00000000E+00 -1.00000000E+00 -1.00000000E+00 -1.00000000E+00 -3.60000000E+00
 -6.75000000E+00
Nuclear ZNuc                               R   N=           6
  1.00000000E+00  1.00000000E+00  1.00000000E+00  1.00000000E+00  6.00000000E+00
  9.00000000E+00
Nuclear QMom                               R   N=           6
  0.00000000E+00  0.00000000E+00  0.00000000E+00  0.00000000E+00  0.00000000E+00
  0.00000000E+00
Nuclear GFac                               R   N=           6
  2.79284600E+00  2.79284600E+00  2.79284600E+00  2.79284600E+00  0.00000000E+00
  2.62886700E+00
MicOpt                                     I   N=           6
          -1          -1          -1          -1          -1          -1
Number of contracted shells                I               16
Number of primitive shells                 I               38
Pure/Cartesian d shells                    I                1
Pure/Cartesian f shells                    I                0
Highest angular momentum                   I                2
Largest degree of contraction              I                6
Shell types                                I   N=          16
           0           0           0           0           0           0
           0           0           0          -1          -1           2
           0          -1          -1           2
Number of primitives per shell             I   N=          16
           3           1           3           1           3           1
           3           1           6           3           1           1
           6           3           1           1
Shell to atom map                          I   N=          16
           1           1           2           2           3           3
           4           4           5           5           5           5
           6           6           6           6
Primitive exponents                        R   N=          38
  1.87311370E+01  2.82539436E+00  6.40121692E-01  1.61277759E-01  1.87311370E+01
  2.82539436E+00  6.40121692E-01  1.61277759E-01  1.87311370E+01  2.82539436E+00
  6.40121692E-01  1.61277759E-01  1.87311370E+01  2.82539436E+00  6.40121692E-01
  1.61277759E-01  3.04752488E+03  4.57369518E+02  1.03948685E+02  2.92101553E+01
  9.28666296E+00  3.16392696E+00  7.86827235E+00  1.88128854E+00  5.44249258E-01
  1.68714478E-01  8.00000000E-01  7.00171309E+03  1.05136609E+03  2.39285690E+02
  6.73974453E+01  2.15199573E+01  7.40310130E+00  2.08479528E+01  4.80830834E+00
  1.34406986E+00  3.58151393E-01  8.00000000E-01
Contraction coefficients                   R   N=          38
  3.34946043E-02  2.34726953E-01  8.13757326E-01  1.00000000E+00  3.34946043E-02
  2.34726953E-01  8.13757326E-01  1.00000000E+00  3.34946043E-02  2.34726953E-01
  8.13757326E-01  1.00000000E+00  3.34946043E-02  2.34726953E-01  8.13757326E-01
  1.00000000E+00  1.83473713E-03  1.40373228E-02  6.88426223E-02  2.32184443E-01
  4.67941348E-01  3.62311985E-01 -1.19332420E-01 -1.60854152E-01  1.14345644E+00
  1.00000000E+00  1.00000000E+00  1.81961690E-03  1.39160796E-02  6.84053245E-02
  2.33185760E-01  4.71267439E-01  3.56618546E-01 -1.08506975E-01 -1.46451658E-01
  1.12868858E+00  1.00000000E+00  1.00000000E+00
P(S=P) Contraction coefficients            R   N=          38
  0.00000000E+00  0.00000000E+00  0.00000000E+00  0.00000000E+00  0.00000000E+00
  0.00000000E+00  0.00000000E+00  0.00000000E+00  0.00000000E+00  0.00000000E+00
  0.00000000E+00  0.00000000E+00  0.00000000E+00  0.00000000E+00  0.00000000E+00
  0.00000000E+00  0.00000000E+00  0.00000000E+00  0.00000000E+00  0.00000000E+00
  0.00000000E+00  0.00000000E+00  6.89990666E-02  3.16423961E-01  7.44308291E-01
  1.00000000E+00  0.00000000E+00  0.00000000E+00  0.00000000E+00  0.00000000E+00
  0.00000000E+00  0.00000000E+00  0.00000000E+00  7.16287242E-02  3.45912103E-01
  7.22469956E-01  1.00000000E+00  0.00000000E+00
Coordinates of each shell                  R   N=          48
 -1.41943224E+00 -1.83946039E-01  1.86330794E+00 -1.41943224E+00 -1.83946039E-01
  1.86330794E+00 -4.37031112E+00 -7.51648117E-03  9.26471268E-03 -4.37031112E+00
 -7.51648117E-03  9.26471268E-03 -1.44520558E+00  1.71509057E+00 -7.76565007E-01
 -1.44520558E+00  1.71509057E+00 -7.76565007E-01 -1.42643345E+00 -1.52349522E+00
 -1.09924735E+00 -1.42643345E+00 -1.52349522E+00 -1.09924735E+00 -2.27246278E+00
 -4.16672020E-04  4.56021939E-04 -2.27246278E+00 -4.16672020E-04  4.56021939E-04
 -2.27246278E+00 -4.16672020E-04  4.56021939E-04 -2.27246278E+00 -4.16672020E-04
  4.56021939E-04  2.47735101E+00  2.63022386E-04  5.59523103E-05  2.47735101E+00
  2.63022386E-04  5.59523103E-05  2.47735101E+00  2.63022386E-04  5.59523103E-05
  2.47735101E+00  2.63022386E-04  5.59523103E-05
Constraint Structure                       R   N=          18
 -1.41943224E+00 -1.83946039E-01  1.86330794E+00 -4.37031112E+00 -7.51648117E-03
  9.26471268E-03 -1.44520558E+00  1.71509057E+00 -7.76565007E-01 -1.42643345E+00
 -1.52349522E+00 -1.09924735E+00 -2.27246278E+00 -4.16672020E-04  4.56021939E-04
  2.47735101E+00  2.63022386E-04  5.59523103E-05
Num ILSW                                   I              100
ILSW                                       I   N=         100
           0           1           0           0           2           0
           0           0           0           0         402          -1
           0           0           0           0           0           0
           0           0           1           0           0           0
           1           0           0           0           0           0
           0           0      100000           0          -1           0
           0           0           0           0           0           0
           0           0           0           1           0           0
           0           0           1           0           0           0
           0           0           4          41           0           0
           0           0           5           0           0           0
           0           0           0           0           0           0
           0           0           0           0           0           0
           0           0           0           0           0           0
           0           0           0           0           0           0
           0           0           0           0           0           0
           0           0           0           0
Num RLSW                                   I               41
RLSW                                       R   N=          41
  8.00000000E-01  7.20000000E-01  1.00000000E+00  8.10000000E-01  2.00000000E-01
  0.00000000E+00  0.00000000E+00  1.00000000E+00  0.00000000E+00  0.00000000E+00
  0.00000000E+00  0.00000000E+00  1.00000000E+00  0.00000000E+00  0.00000000E+00
  0.00000000E+00  0.00000000E+00  1.00000000E+00  0.00000000E+00  0.00000000E+00
  0.00000000E+00  0.00000000E+00  1.00000000E+00  0.00000000E+00  0.00000000E+00
  0.00000000E+00  0.00000000E+00  1.00000000E+00  0.00000000E+00  0.00000000E+00
  0.00000000E+00  0.00000000E+00  1.00000000E+00  0.00000000E+00  0.00000000E+00
  0.00000000E+00  0.00000000E+00  0.00000000E+00  1.00000000E+00  1.00000000E+00
  0.00000000E+00
MxBond                                     I                4
NBond                                      I   N=           6
           1           1           1           1           4           0
IBond                                      I   N=          24
           5           0           0           0           5           0
           0           0           5           0           0           0
           5           0           0           0           1           2
           3           4           0           0           0           0
RBond                                      R   N=          24
  1.00000000E+00  0.00000000E+00  0.00000000E+00  0.00000000E+00  1.00000000E+00
  0.00000000E+00  0.00000000E+00  0.00000000E+00  1.00000000E+00  0.00000000E+00
  0.00000000E+00  0.00000000E+00  1.00000000E+00  0.00000000E+00  0.00000000E+00
  0.00000000E+00  1.00000000E+00  1.00000000E+00  1.00000000E+00  1.00000000E+00
  0.00000000E+00  0.00000000E+00  0.00000000E+00  0.00000000E+00
Virial Ratio                               R      2.005275945943495E+00
SCF Energy                                 R     -1.402946546284234E+02
Total Energy                               R     -1.402946546284234E+02
RMS Density                                R      6.536756630649373E-09
External E-field                           R   N=          35
  0.00000000E+00  0.00000000E+00  0.00000000E+00  0.00000000E+00  0.00000000E+00
  0.00000000E+00  0.00000000E+00  0.00000000E+00  0.00000000E+00  0.00000000E+00
  0.00000000E+00  0.00000000E+00  0.00000000E+00  0.00000000E+00  0.00000000E+00
  0.00000000E+00  0.00000000E+00  0.00000000E+00  0.00000000E+00  0.00000000E+00
  0.00000000E+00  0.00000000E+00  0.00000000E+00  0.00000000E+00  0.00000000E+00
  0.00000000E+00  0.00000000E+00  0.00000000E+00  0.00000000E+00  0.00000000E+00
  0.00000000E+00  0.00000000E+00  0.00000000E+00  0.00000000E+00  0.00000000E+00
IOpCl                                      I                0
IROHF                                      I                0
Alpha Orbital Energies                     R   N=          38
 -2.41530235E+01 -9.94972278E+00 -6.16597286E-01 -4.72103514E-01 -1.90685129E-01
 -1.65170617E-01 -1.64507773E-01  1.00837867E-01  1.00894535E-01  1.01262981E-01
  3.23047392E-01  3.69695896E-01  3.88689773E-01  3.89301394E-01  7.27562719E-01
  7.27949510E-01  8.25016495E-01  1.09329822E+00  1.10692510E+00  1.10784322E+00
  1.17315748E+00  1.29830533E+00  1.42830705E+00  1.63654336E+00  1.63735268E+00
  1.87658929E+00  1.87686994E+00  1.90207127E+00  2.30943449E+00  2.30951589E+00
  2.31892249E+00  2.31938855E+00  2.38625429E+00  2.48332845E+00  2.48495535E+00
  2.51744455E+00  3.95277298E+00  4.40970742E+00
Alpha MO coefficients                      R   N=        1444
  1.01789377E-04 -1.54725175E-04 -5.17514538E-05 -3.80449630E-04  1.02273786E-04
 -1.46091498E-04  1.01990507E-04 -1.51620001E-04  8.74521851E-07  8.61801646E-05
  1.01795522E-04  3.44859862E-07 -4.94697664E-07  2.88385548E-04 -5.85721738E-04
 -3.87606926E-06  4.09061161E-06 -6.99755675E-05 -1.70197651E-05 -1.61971694E-05
  7.56697251E-08 -1.96165806E-07  3.46273040E-07  9.93094301E-01  1.97292757E-02
  1.18412361E-05 -2.68291939E-07  2.41824330E-07  1.41891001E-02 -1.93758555E-04
 -2.16656766E-07  1.74518964E-07 -7.73122532E-03 -7.80254325E-03 -7.80245341E-03
  1.05425278E-07 -8.49266183E-08  2.99833535E-08 -5.33515705E-05  2.69942989E-03
 -3.00216198E-04  2.21393136E-03 -5.55898213E-05  2.70822265E-03 -5.22586030E-05
  2.69304010E-03  9.92822923E-01  4.97787853E-02 -9.82960595E-05  5.67807853E-06
 -3.11131520E-06 -1.47632773E-02 -8.32867156E-04 -1.20637103E-05  6.22669755E-06
 -9.26420586E-03 -9.34492539E-03 -9.34431186E-03  1.20766809E-06  1.11741022E-07
 -1.16319053E-06 -1.68740975E-05 -1.33554251E-04  7.59080780E-05 -6.97615708E-07
  6.60428647E-07  3.29989152E-04 -2.89409945E-04  2.55240912E-06 -2.44583216E-06
  9.57316062E-05 -1.40490028E-04 -1.41128319E-04 -8.27419107E-07  8.26829821E-07
 -1.80293505E-07  1.09727477E-02  1.55583226E-02  6.63373820E-03  1.48292800E-02
  1.07704648E-02  1.51074742E-02  1.08808320E-02  1.53884212E-02 -1.37526513E-02
  2.71556460E-02  8.28759283E-03 -3.52396077E-06  3.01845579E-05 -3.45404036E-03
  1.85782841E-02  1.25324099E-04 -1.34724193E-04  2.66528379E-03  2.51411391E-04
  2.38392875E-04 -9.67742971E-07  4.09783275E-06 -7.37781377E-06 -2.38542726E-01
  4.80514349E-01 -3.27287490E-03 -1.73783648E-05  1.53042718E-05  6.14926181E-01
  2.51996150E-03 -4.18188286E-06  4.22986915E-06 -7.86896926E-03 -8.25709798E-03
 -8.24553352E-03  5.31544065E-06 -4.58853709E-06  4.40453506E-06  1.33081188E-01
  4.58083828E-02  1.37865958E-01  3.89352334E-02  1.33516715E-01  4.63174368E-02
  1.32769718E-01  4.58949386E-02 -1.96944147E-01  3.80325449E-01  8.94491847E-04
  5.81842611E-04 -4.33324103E-05  3.44061050E-01 -3.97723383E-02 -2.00765219E-05
  1.09272033E-04  1.86155073E-03  9.61352650E-04  9.27193908E-04 -2.24812443E-05
  1.74632042E-05 -5.68508603E-05  2.40490125E-02 -4.83095237E-02 -1.34397601E-02
 -1.07208174E-05  1.15593700E-05 -6.95061391E-02 -8.31978802E-03 -7.42903236E-06
  9.96987097E-06  2.49550120E-03  9.99873701E-04  1.00365757E-03  6.45323713E-06
 -7.08217727E-06  9.67033217E-07  1.10872208E-01  8.82801709E-02 -2.90749774E-01
 -3.42868601E-01  1.08415420E-01  8.70097513E-02  1.09940874E-01  8.78247185E-02
 -5.33938880E-03  1.64567704E-02  4.29992709E-01  3.27694386E-04 -2.56824874E-04
  3.08708558E-02  1.33710893E-01 -3.08057615E-04  2.77847749E-04 -2.56982749E-02
  1.33264044E-02  1.34934201E-02 -1.89751779E-04  2.45908283E-04  4.20235083E-05
  1.53745736E-02 -2.62508676E-02 -4.80317077E-02 -1.06381167E-04  8.99515451E-05
 -6.34639996E-02 -2.88464957E-02 -6.36949528E-05  5.50271388E-05  5.21234428E-03
  3.45128625E-03  3.45645960E-03  7.76776639E-06 -7.41400206E-06  1.61494620E-06
 -1.53420718E-01 -1.30641014E-01 -1.65840490E-03 -2.06800854E-03  2.65732237E-01
  2.27667045E-01 -1.10759541E-01 -9.45854365E-02  2.42956443E-04 -3.83207698E-04
 -6.36177523E-04  3.86285475E-01 -2.19771283E-01 -1.27769837E-03 -8.35384574E-04
  2.09762485E-01 -1.19458081E-01 -3.44272946E-04  1.28794792E-02 -1.25086776E-02
  1.23265656E-02 -7.10414403E-03 -1.38735082E-02 -1.51252526E-04  1.59930741E-04
  4.60657985E-04  2.03973156E-02 -1.16647215E-02  8.47088159E-04  2.22377203E-04
  1.22396110E-02 -6.99796335E-03 -1.07696195E-04 -2.08742413E-05 -1.54261262E-04
 -5.09514813E-04  2.95613037E-04 -7.06401769E-05  2.16842377E-01  1.85003042E-01
  3.51504539E-04  4.21442292E-04  2.44570172E-02  2.09430502E-02 -2.41994388E-01
 -2.07178660E-01  1.23241912E-05 -7.45753538E-06  3.21833498E-04  2.19530208E-01
  3.86434239E-01 -1.06073861E-04  2.96347733E-04  1.19676300E-01  2.10869731E-01
  6.15879345E-05 -1.18326423E-02  1.17537429E-02  7.09335438E-03  1.26466455E-02
 -1.45228315E-02  1.72984721E-05 -1.86920142E-05 -6.05575692E-05  1.17305268E-02
  2.07548410E-02 -1.04296145E-04 -3.22483730E-05  7.04150835E-03  1.24557861E-02
  1.50792643E-05 -5.77752133E-05  7.44517572E-05 -2.95461211E-04 -5.30155553E-04
 -7.90064296E-05 -1.92906247E-02  1.51174300E-01 -4.98457537E-04 -2.90464094E-03
  4.11676898E-03 -2.85323876E-02  1.61892085E-02 -1.20983278E-01 -1.54270175E-04
  5.13976161E-04  2.01729071E-04 -1.50844870E-02 -6.09017139E-02  5.54351853E-04
 -2.72491079E-03 -3.10945220E-02 -1.26033010E-01 -1.14105814E-04  2.40904628E-03
 -2.28077931E-03  2.53346937E-04  1.03778275E-03  1.62030605E-03 -2.27629913E-05
 -9.59315574E-05  4.78792397E-03  1.49594093E-01  6.06913342E-01  3.15796444E-04
  3.84929802E-03  1.22941486E-01  4.98771468E-01 -7.41223028E-05 -1.11825761E-04
 -5.82130390E-05  1.10197798E-05  4.28941718E-05 -1.96745977E-05  6.26563731E-03
 -5.32220563E-02  1.12852698E-03  6.43294321E-03 -2.14433200E-02  1.53277569E-01
  1.28865929E-02 -1.02360516E-01  3.72510074E-04 -1.15093201E-03 -6.26582363E-04
 -6.01905046E-02  1.47543095E-02 -2.39593252E-03  5.50537294E-03 -1.23021776E-01
  3.02705874E-02  2.82376510E-04 -1.54111882E-03  1.26500099E-03  1.12679020E-03
 -2.80218403E-04  2.70025698E-03  6.03738193E-05  2.30184746E-04 -1.14582321E-02
  6.07052575E-01 -1.49552077E-01 -8.19594574E-04 -9.17759125E-03  4.99058014E-01
 -1.22944360E-01  1.75439479E-04  2.16413482E-04  1.96064338E-04  2.23278501E-05
 -5.02104958E-06 -2.13447280E-05  3.35466076E-02 -3.73663637E-02 -5.78538845E-02
 -3.05537354E-01  3.26469351E-02 -3.04257699E-02  3.32713970E-02 -3.54545135E-02
 -3.00789754E-02  6.14006200E-02  5.65453392E-02 -1.68613483E-03  1.32677004E-03
  2.76620970E-01 -1.61940422E-01 -3.83864930E-03  3.26203886E-03 -1.69394056E-02
  5.44634542E-03  5.63190188E-03 -5.26884703E-05  5.40682572E-05  6.27047566E-05
 -4.87225998E-03 -1.45880109E-02  6.18814287E-01  9.99754670E-03 -7.40668240E-03
  6.19589041E-02  4.92084578E-01  8.19713033E-03 -6.06233070E-03 -1.16847909E-02
 -1.41409875E-02 -1.41431792E-02  2.06053146E-06 -3.40879700E-06 -5.52083109E-07
 -3.87225594E-02 -8.55924734E-01  1.19321271E-02 -1.30213882E+00 -3.90943444E-02
 -8.75984304E-01 -3.96320056E-02 -8.66463644E-01 -1.58560890E-01  1.57760482E-01
 -1.75399884E-01  4.12295418E-04 -1.81504424E-03  2.59997722E+00 -5.84866602E-02
  4.47649014E-03 -7.48912549E-03 -8.16716025E-03 -1.79518965E-02 -1.79409677E-02
  2.44847308E-05  3.95877080E-05 -7.48258016E-05 -1.80793895E-02  3.74120082E-02
 -1.10492175E-01 -2.17071034E-04 -2.27470266E-04  8.89474686E-02 -1.26675296E-01
 -4.44249564E-04  2.18408283E-05  1.83082843E-04 -4.42234536E-03 -4.39130719E-03
  3.91422507E-05 -4.22697220E-05  5.18994154E-06  4.97668809E-03 -8.66520513E-01
  6.95574233E-02  1.64057275E+00  1.07631585E-03 -9.14679320E-01  2.57003392E-03
 -8.93962976E-01 -3.48551361E-02  5.58829333E-02  4.00432749E-01  4.58511516E-03
 -7.16248207E-03  6.41546219E-01  1.41912004E+00  1.66149783E-02 -2.51798061E-02
 -6.73595944E-04 -3.38588349E-03 -2.92346806E-03 -5.31758201E-05  1.88174151E-04
  6.73300422E-05  3.42170221E-03  1.43399980E-02  4.74751193E-02  1.54701063E-05
 -7.24034288E-04 -5.25578522E-02  5.96387601E-02 -2.22692141E-04 -4.60264818E-04
  1.15404075E-02  9.97284881E-03  1.00497320E-02  3.27110959E-05 -3.99103384E-05
  1.21737825E-05 -8.20808628E-03 -9.28410050E-02 -9.96131420E-05 -8.72850683E-03
 -1.15774027E-01 -1.46108821E+00  1.25001549E-01  1.57017887E+00  4.66268464E-04
 -9.65067197E-04 -3.12511315E-03  3.45275222E-01  5.44953023E-02 -3.42561622E-03
 -1.44659127E-02  1.33447385E+00  2.09316803E-01  4.47688198E-05 -2.01161412E-03
  1.99496765E-03 -1.52202826E-02 -2.54926416E-03  1.66684315E-02  2.17218015E-04
 -2.11599164E-04  5.70673910E-04  9.66227997E-02  1.60119286E-02 -1.63581688E-03
  1.03737200E-03  8.80192271E-02  1.47593270E-02  8.45221776E-05 -1.52898200E-04
  4.83593038E-04  2.06948205E-03  3.19882424E-04  2.52800633E-03  1.39836250E-01
  1.77153015E+00 -1.35162797E-03 -1.86857390E-02 -7.59992018E-02 -9.44156427E-01
 -6.30754214E-02 -7.65979662E-01  1.50787842E-03 -2.00304101E-03 -6.33946403E-03
  5.45752380E-02 -3.44596825E-01 -2.78732014E-02 -3.16481726E-02  2.12570157E-01
 -1.33414940E+00  8.37203812E-05 -1.43065043E-02  1.45090606E-02 -2.31226871E-03
  1.55175833E-02 -2.42922847E-03  3.30771615E-04 -5.51098078E-04  7.43783017E-04
  1.48034701E-02 -9.82237386E-02 -2.10472871E-03  1.37038782E-03  1.33686391E-02
 -8.98158935E-02  7.87028275E-06 -2.02832488E-03  2.33556155E-03  3.33771822E-04
 -2.06709853E-03 -3.51366108E-04 -4.35915609E-01 -1.13919356E-01 -3.02155319E-03
  1.83024404E-03  3.23863808E-01  8.57754198E-02  1.13860417E-01  2.78513144E-02
 -4.70365817E-06 -8.51850025E-04 -1.86104889E-03  2.84634993E-01 -7.36074704E-01
  7.71422436E-04  4.21669032E-03 -4.93535330E-01  1.26864387E+00 -1.38533711E-03
  5.93992652E-02 -5.82855917E-02  2.17812822E-02 -5.73669891E-02 -5.30334985E-03
  1.19669726E-04  1.41901412E-03 -6.99362593E-04  1.51989586E-02 -3.83787119E-02
 -3.18732933E-03  6.16470681E-04  5.69618465E-03 -1.49683264E-02  6.36974180E-04
  2.55768128E-03 -7.65221176E-04  2.90310761E-03 -7.22698399E-03 -1.28970098E-04
 -1.21342048E-01 -3.06473506E-02  2.72746812E-03 -1.42533015E-03 -3.18421086E-01
 -8.50445809E-02  4.37985948E-01  1.13202391E-01 -4.25629781E-05  8.41525955E-05
 -5.79799812E-04 -7.36132722E-01 -2.85976870E-01  2.44003379E-03  1.52132049E-03
  1.26964889E+00  4.90266546E-01  9.50389868E-04  3.63899867E-03 -4.09614111E-03
 -5.68874117E-02 -2.25059289E-02  6.84613366E-02 -1.53533462E-05 -1.29946190E-03
  7.68381379E-04 -3.88323164E-02 -1.47262461E-02  2.13744724E-03  2.79607920E-05
 -1.48392783E-02 -5.85728205E-03 -5.05986553E-04 -5.45172486E-04 -7.96760499E-04
 -7.36603935E-03 -2.75268402E-03  1.91099691E-03 -4.04212786E-02 -3.29129730E-02
  6.73973421E-01  3.61655968E-01 -3.86952141E-02 -2.39955992E-02 -4.08187836E-02
 -3.37449563E-02  3.32671431E-02  1.36140513E-01 -6.28124678E-01  3.55193704E-03
 -3.26956120E-04 -5.89327195E-01  1.44654860E+00 -6.15306771E-03 -1.21949935E-03
  1.55300789E-01 -4.41501423E-02 -4.45582723E-02  1.26012409E-03 -1.12770583E-03
 -3.60337903E-04  9.71093497E-03 -3.39129209E-01  1.67927650E-01 -3.45191365E-04
  3.58963794E-04  4.32763534E-01  9.43177063E-02  2.12422099E-05 -2.68113307E-05
 -1.28096240E-01 -1.46372799E-01 -1.46413353E-01 -5.77574766E-05  7.59913120E-05
 -3.02362154E-05  3.70852455E-02 -2.66770051E-01 -9.87348173E-01  1.85619941E+00
  5.22114455E-02 -2.97714798E-01  4.03297953E-02 -2.72829124E-01 -3.00735949E-02
  3.87317796E-01 -8.76288777E-01 -1.12541791E-02  9.44661448E-03 -6.88289305E-01
  1.33870586E+00  1.68693147E-02 -1.40486726E-02 -1.44200704E-01  9.85162893E-02
  9.63750467E-02  1.55214881E-04  2.98453220E-04 -9.45911356E-04  7.02738831E-03
 -1.44901913E-01  3.04123801E-02  4.02185954E-04 -1.34098864E-04  1.54310958E-01
  7.13712297E-02 -6.21211797E-05 -4.85476879E-06 -4.79704140E-02 -5.05613324E-02
 -5.04145693E-02  3.26778465E-05  1.40534576E-05  6.80335232E-05  3.74249363E-01
 -7.20576911E-01  3.57395279E-03 -6.12875790E-03  4.48433261E-01 -8.61715999E-01
 -8.39080664E-01  1.60559577E+00 -4.18542286E-04  7.36937305E-03  7.07125007E-03
 -6.99886115E-01 -4.49689240E-01 -1.29189338E-02 -9.46307383E-03  9.95395919E-01
  6.40166765E-01  1.37871119E-03 -3.53744828E-02  3.47223385E-02  1.14555838E-01
  7.49754193E-02 -1.47602208E-01 -1.34244842E-04 -4.42231563E-03  8.11130070E-05
  8.46661977E-02  5.52021567E-02  7.70514000E-03  2.59150665E-04 -1.93936665E-02
 -1.21174000E-02 -2.24292656E-03  5.25302017E-04 -4.51780036E-03  1.27635626E-02
  8.21572359E-03  1.04836034E-02 -7.37940189E-01  1.42376031E+00  1.35386585E-02
 -1.69030361E-02  7.05746697E-01 -1.34476711E+00  4.79629625E-02 -8.42625609E-02
  1.16818309E-03 -9.14535939E-03  1.07666118E-02 -4.51325492E-01  7.00313034E-01
  1.13677916E-02 -1.60814528E-02  6.41274155E-01 -9.96032559E-01 -5.98934275E-04
  1.27404057E-01 -1.27730661E-01  7.32159486E-02 -1.15791238E-01 -4.22636422E-02
  2.13902262E-04  2.28288170E-03 -1.29422426E-03  5.41823515E-02 -8.53296735E-02
 -5.67390304E-03  1.45423571E-03 -1.27800722E-02  1.92891064E-02  8.43373353E-04
 -7.65027416E-03  1.04836344E-02  8.22689569E-03 -1.27878415E-02  2.96643844E-03
  6.63660419E-01 -6.92213612E-01  1.88021449E-01  4.18361193E-02  6.52976262E-01
 -6.73097338E-01  6.46956374E-01 -6.61327712E-01  7.96893745E-02 -8.43373892E-01
 -3.72939768E-01 -5.36278794E-03 -7.62671045E-03  1.26944407E+00  4.35639701E-01
  6.04516956E-03  1.07064748E-02 -1.16274169E-01  9.18622557E-03  1.17652735E-02
 -7.63501234E-04  2.69569970E-03 -1.45273032E-03  2.30573027E-02  5.81134629E-01
 -3.28402359E-02  6.43949757E-04  8.81361977E-04 -1.07221544E+00  2.93362258E-03
 -7.59033707E-04  1.82230304E-04  2.79297851E-01  2.72982358E-01  2.72849606E-01
  2.10737659E-04  2.10786143E-05  9.14687427E-05 -2.25909872E-01 -1.08272066E+00
 -2.35892902E-01 -7.97510907E-01 -2.25032325E-01 -1.08381754E+00 -2.27367398E-01
 -1.07612258E+00 -8.47292443E-02 -1.91885008E+00 -3.51779810E-02 -8.26451839E-04
  3.73189755E-04  5.09296875E+00  2.97231703E-01  4.79099118E-03 -7.82525720E-04
 -8.76522301E-02 -1.11848966E-01 -1.11245815E-01  1.27038922E-03 -4.12308921E-04
  2.73200444E-04 -2.25897010E-02 -6.46282279E-01  1.47554255E-01 -2.30497616E-03
  2.44011707E-03  1.19210406E+00 -7.93070243E-02  1.53514647E-03 -1.56059710E-03
 -2.21090064E-01 -3.16248507E-01 -3.16601457E-01 -3.85132458E-04  4.23424909E-04
 -7.44032110E-05  2.92315072E-01 -6.31691152E-04  1.02565781E-01 -1.90479182E-01
  2.87632352E-01  1.32444920E-02  2.90678177E-01  3.88606750E-03  4.04389145E-02
  1.81076595E-01  1.31532468E-01  1.27037879E-03 -2.17375961E-03 -5.48687061E-01
 -4.97113810E-01 -5.39528239E-03  5.72422094E-03 -4.82907470E-02  5.57439176E-02
  5.57191008E-02 -2.03911378E-03  1.77217023E-03 -3.15148177E-04 -8.62378777E-02
 -1.50179902E+00 -5.35554326E-01  3.80546377E-04 -5.01476812E-04  2.99977492E+00
  4.29914479E-01 -5.29802833E-04  6.19373059E-04 -7.69863244E-01 -6.93524832E-01
 -6.93589313E-01  1.05179693E-04 -1.24444621E-04 -1.26917353E-05 -3.08463471E-02
  1.32262662E-01  1.70942963E-03  1.13910893E-03  9.50962245E-02 -3.75720444E-01
 -6.21178143E-02  2.57783364E-01  3.42731195E-04  5.51373089E-03  7.46865705E-04
 -4.52461137E-02  1.09435664E-02 -1.68464947E-02 -3.44084828E-03  2.04228332E-01
 -4.92328453E-02 -1.17954348E-03 -1.93693761E-03  3.47546635E-03  9.50525211E-02
 -2.28082091E-02  5.28090085E-03  1.73614434E-04  3.22913048E-03 -2.40968162E-03
 -9.31429181E-01  2.23248582E-01 -6.56527307E-03  2.86644841E-03  1.01530131E+00
 -2.43346215E-01  9.35760151E-04 -2.32310522E-03  5.57658996E-03  2.00271143E-02
 -4.79624448E-03  7.72537647E-03  9.16806113E-02 -3.75878944E-01 -9.72093005E-04
 -5.77375016E-04 -1.86460795E-02  7.13454236E-02 -7.41000419E-02  2.95435911E-01
 -1.97200452E-04 -3.33928829E-03 -5.30208796E-04 -1.11396501E-02 -4.68929788E-02
  1.06115579E-02  2.17421673E-03  5.00337482E-02  2.09891546E-01  6.86917995E-04
  5.10106869E-03 -6.08350574E-03  2.25353228E-02  9.40958250E-02  3.81470098E-03
 -9.99756357E-05 -1.78577662E-03  1.57443048E-03 -2.23268341E-01 -9.31412075E-01
  3.66939282E-03 -1.85904381E-03  2.43587435E-01  1.01615556E+00 -5.21432431E-04
  5.91965437E-03 -7.74202862E-03  4.96216271E-03  2.06834231E-02  4.66436020E-03
 -1.54962565E-02 -2.63378436E-02 -2.24413520E-03  3.14674689E-02 -2.46952891E-02
  1.70552036E-02 -1.67090460E-02 -2.11977438E-02 -3.00109121E-03 -2.82008490E-02
 -1.91022170E-02  4.15587794E-03 -2.43161302E-03  6.33880166E-02  7.46725522E-02
 -1.17774615E-02  6.81172228E-03 -1.66079830E-03 -4.26347785E-01  4.22485697E-01
  6.40740269E-01 -3.72509450E-01  4.46014437E-01  3.31486949E-03  5.97912836E-02
 -5.62553864E-02  6.56545023E-02 -3.83097253E-02 -1.19862233E-01  7.61383995E-02
 -7.75759596E-02  4.52821123E-02  4.44711483E-02  1.56942424E-02  1.55475274E-02
 -1.98584494E-02  1.16062542E-02 -7.56142192E-05 -1.16018310E-03  2.47867430E-02
  6.77440220E-04 -4.35151607E-03  2.94896885E-03  5.04072845E-03  8.68964451E-03
 -2.34524794E-02  5.64050614E-04  5.29194244E-03  2.81501292E-03  2.39817088E-03
  4.15520918E-03 -1.29434975E-02 -1.16701852E-02 -7.32857768E-03 -1.24749710E-02
  1.45516940E-03  3.95377983E-01 -3.95914883E-01  3.74288316E-01  6.32694355E-01
  4.94400246E-01 -5.23226721E-04 -8.91541953E-03  8.33779427E-03  3.83337689E-02
  6.50140688E-02  1.80884855E-02 -1.13881955E-02 -4.53069330E-02 -7.68647273E-02
 -6.83240098E-03 -2.41031618E-03 -2.27232635E-03 -1.16071067E-02 -1.97083730E-02
 -8.47409447E-05  2.84825018E-01  1.45267539E-01  6.00777485E-02 -4.18230816E-01
  2.83791388E-01  1.58676233E-01  2.85149920E-01  1.48439524E-01  4.55468643E-02
  4.12322181E-01  2.58191875E-01  1.03583275E-03 -1.53046959E-03 -9.66252461E-01