Title Card Required                                                     
SP        RB3LYP                                                      6-31G(d)            
Number of atoms                            I                6
Info1-9                                    I   N=           9
          21          13           0           0           0         110
           1          18        -502
Charge                                     I               -1
Multiplicity                               I                1
Number of electrons                        I               20
Number of alpha electrons                  I               10
Number of beta electrons                   I               10
Number of basis functions                  I               38
Number of independent functions            I               38
Number of point charges in /Mol/           I                0
Number of translation vectors              I                0
Atomic numbers                             I   N=           6
           1           1           1           1           6           9
Nuclear charges                            R   N=           6
  1.00000000E+00  1.00000000E+00  1.00000000E+00  1.00000000E+00  6.00000000E+00
  9.00000000E+00
Current cartesian coordinates              R   N=          18
  1.67941860E+00 -8.75119976E-01  1.76208746E+00  5.31308828E+00  1.16358914E-05
 -1.46498044E-04  1.67914465E+00 -1.08849489E+00 -1.63890394E+00  1.67924755E+00
  1.96357836E+00 -1.23193769E-01  1.10599476E+00  4.68148543E-06  3.45953912E-05
 -1.88742974E+00 -3.58388302E-07 -5.64760594E-06
Force Field                                I                0
Int Atom Types                             I   N=           6
           0           0           0           0           0           0
MM charges                                 R   N=           6
  0.00000000E+00  0.00000000E+00  0.00000000E+00  0.00000000E+00  0.00000000E+00
  0.00000000E+00
Integer atomic weights                     I   N=           6
           1           1           1           1          12          19
Real atomic weights                        R   N=           6
  1.00782504E+00  1.00782504E+00  1.00782504E+00  1.00782504E+00  1.20000000E+01
  1.89984032E+01
Atom fragment info                         I   N=           6
           0           0           0           0           0           0
Atom residue num                           I   N=           6
           0           0           0           0           0           0
Nuclear spins                              I   N=           6
           1           1           1           1           0           1
Nuclear ZEff                               R   N=           6
 -1.00000000E+00 -1.00000000E+00 -1.00000000E+00 -1.00000000E+00 -3.60000000E+00
 -6.75000000E+00
Nuclear ZNuc                               R   N=           6
  1.00000000E+00  1.00000000E+00  1.00000000E+00  1.00000000E+00  6.00000000E+00
  9.00000000E+00
Nuclear QMom                               R   N=           6
  0.00000000E+00  0.00000000E+00  0.00000000E+00  0.00000000E+00  0.00000000E+00
  0.00000000E+00
Nuclear GFac                               R   N=           6
  2.79284600E+00  2.79284600E+00  2.79284600E+00  2.79284600E+00  0.00000000E+00
  2.62886700E+00
MicOpt                                     I   N=           6
          -1          -1          -1          -1          -1          -1
Number of contracted shells                I               16
Number of primitive shells                 I               38
Pure/Cartesian d shells                    I                1
Pure/Cartesian f shells                    I                0
Highest angular momentum                   I                2
Largest degree of contraction              I                6
Shell types                                I   N=          16
           0           0           0           0           0           0
           0           0           0          -1          -1           2
           0          -1          -1           2
Number of primitives per shell             I   N=          16
           3           1           3           1           3           1
           3           1           6           3           1           1
           6           3           1           1
Shell to atom map                          I   N=          16
           1           1           2           2           3           3
           4           4           5           5           5           5
           6           6           6           6
Primitive exponents                        R   N=          38
  1.87311370E+01  2.82539436E+00  6.40121692E-01  1.61277759E-01  1.87311370E+01
  2.82539436E+00  6.40121692E-01  1.61277759E-01  1.87311370E+01  2.82539436E+00
  6.40121692E-01  1.61277759E-01  1.87311370E+01  2.82539436E+00  6.40121692E-01
  1.61277759E-01  3.04752488E+03  4.57369518E+02  1.03948685E+02  2.92101553E+01
  9.28666296E+00  3.16392696E+00  7.86827235E+00  1.88128854E+00  5.44249258E-01
  1.68714478E-01  8.00000000E-01  7.00171309E+03  1.05136609E+03  2.39285690E+02
  6.73974453E+01  2.15199573E+01  7.40310130E+00  2.08479528E+01  4.80830834E+00
  1.34406986E+00  3.58151393E-01  8.00000000E-01
Contraction coefficients                   R   N=          38
  3.34946043E-02  2.34726953E-01  8.13757326E-01  1.00000000E+00  3.34946043E-02
  2.34726953E-01  8.13757326E-01  1.00000000E+00  3.34946043E-02  2.34726953E-01
  8.13757326E-01  1.00000000E+00  3.34946043E-02  2.34726953E-01  8.13757326E-01
  1.00000000E+00  1.83473713E-03  1.40373228E-02  6.88426223E-02  2.32184443E-01
  4.67941348E-01  3.62311985E-01 -1.19332420E-01 -1.60854152E-01  1.14345644E+00
  1.00000000E+00  1.00000000E+00  1.81961690E-03  1.39160796E-02  6.84053245E-02
  2.33185760E-01  4.71267439E-01  3.56618546E-01 -1.08506975E-01 -1.46451658E-01
  1.12868858E+00  1.00000000E+00  1.00000000E+00
P(S=P) Contraction coefficients            R   N=          38
  0.00000000E+00  0.00000000E+00  0.00000000E+00  0.00000000E+00  0.00000000E+00
  0.00000000E+00  0.00000000E+00  0.00000000E+00  0.00000000E+00  0.00000000E+00
  0.00000000E+00  0.00000000E+00  0.00000000E+00  0.00000000E+00  0.00000000E+00
  0.00000000E+00  0.00000000E+00  0.00000000E+00  0.00000000E+00  0.00000000E+00
  0.00000000E+00  0.00000000E+00  6.89990666E-02  3.16423961E-01  7.44308291E-01
  1.00000000E+00  0.00000000E+00  0.00000000E+00  0.00000000E+00  0.00000000E+00
  0.00000000E+00  0.00000000E+00  0.00000000E+00  7.16287242E-02  3.45912103E-01
  7.22469956E-01  1.00000000E+00  0.00000000E+00
Coordinates of each shell                  R   N=          48
  1.67941860E+00 -8.75119976E-01  1.76208746E+00  1.67941860E+00 -8.75119976E-01
  1.76208746E+00  5.31308828E+00  1.16358914E-05 -1.46498044E-04  5.31308828E+00
  1.16358914E-05 -1.46498044E-04  1.67914465E+00 -1.08849489E+00 -1.63890394E+00
  1.67914465E+00 -1.08849489E+00 -1.63890394E+00  1.67924755E+00  1.96357836E+00
 -1.23193769E-01  1.67924755E+00  1.96357836E+00 -1.23193769E-01  1.10599476E+00
  4.68148543E-06  3.45953912E-05  1.10599476E+00  4.68148543E-06  3.45953912E-05
  1.10599476E+00  4.68148543E-06  3.45953912E-05  1.10599476E+00  4.68148543E-06
  3.45953912E-05 -1.88742974E+00 -3.58388302E-07 -5.64760594E-06 -1.88742974E+00
 -3.58388302E-07 -5.64760594E-06 -1.88742974E+00 -3.58388302E-07 -5.64760594E-06
 -1.88742974E+00 -3.58388302E-07 -5.64760594E-06
Constraint Structure                       R   N=          18
  1.67941860E+00 -8.75119976E-01  1.76208746E+00  5.31308828E+00  1.16358914E-05
 -1.46498044E-04  1.67914465E+00 -1.08849489E+00 -1.63890394E+00  1.67924755E+00
  1.96357836E+00 -1.23193769E-01  1.10599476E+00  4.68148543E-06  3.45953912E-05
 -1.88742974E+00 -3.58388302E-07 -5.64760594E-06
Num ILSW                                   I              100
ILSW                                       I   N=         100
           0           1           0           0           2           0
           0           0           0           0         402          -1
           0           0           0           0           0           0
           0           0           1           0           0           0
           1           0           0           0           0           0
           0           0      100000           0          -1           0
           0           0           0           0           0           0
           0           0           0           1           0           0
           0           0           1           0           0           0
           0           0           4          41           0           0
           0           0           5           0           0           0
           0           0           0           0           0           0
           0           0           0           0           0           0
           0           0           0           0           0           0
           0           0           0           0           0           0
           0           0           0           0           0           0
           0           0           0           0
Num RLSW                                   I               41
RLSW                                       R   N=          41
  8.00000000E-01  7.20000000E-01  1.00000000E+00  8.10000000E-01  2.00000000E-01
  0.00000000E+00  0.00000000E+00  1.00000000E+00  0.00000000E+00  0.00000000E+00
  0.00000000E+00  0.00000000E+00  1.00000000E+00  0.00000000E+00  0.00000000E+00
  0.00000000E+00  0.00000000E+00  1.00000000E+00  0.00000000E+00  0.00000000E+00
  0.00000000E+00  0.00000000E+00  1.00000000E+00  0.00000000E+00  0.00000000E+00
  0.00000000E+00  0.00000000E+00  1.00000000E+00  0.00000000E+00  0.00000000E+00
  0.00000000E+00  0.00000000E+00  1.00000000E+00  0.00000000E+00  0.00000000E+00
  0.00000000E+00  0.00000000E+00  0.00000000E+00  1.00000000E+00  1.00000000E+00
  0.00000000E+00
MxBond                                     I                4
NBond                                      I   N=           6
           1           0           1           1           4           1
IBond                                      I   N=          24
           5           0           0           0           0           0
           0           0           5           0           0           0
           5           0           0           0           1           3
           4           6           5           0           0           0
RBond                                      R   N=          24
  1.00000000E+00  0.00000000E+00  0.00000000E+00  0.00000000E+00  0.00000000E+00
  0.00000000E+00  0.00000000E+00  0.00000000E+00  1.00000000E+00  0.00000000E+00
  0.00000000E+00  0.00000000E+00  1.00000000E+00  0.00000000E+00  0.00000000E+00
  0.00000000E+00  1.00000000E+00  1.00000000E+00  1.00000000E+00  1.00000000E+00
  1.00000000E+00  0.00000000E+00  0.00000000E+00  0.00000000E+00
Virial Ratio                               R      2.006043427448085E+00
SCF Energy                                 R     -1.402266653991171E+02
Total Energy                               R     -1.402266653991171E+02
RMS Density                                R      2.019337670531565E-09
External E-field                           R   N=          35
  0.00000000E+00  0.00000000E+00  0.00000000E+00  0.00000000E+00  0.00000000E+00
  0.00000000E+00  0.00000000E+00  0.00000000E+00  0.00000000E+00  0.00000000E+00
  0.00000000E+00  0.00000000E+00  0.00000000E+00  0.00000000E+00  0.00000000E+00
  0.00000000E+00  0.00000000E+00  0.00000000E+00  0.00000000E+00  0.00000000E+00
  0.00000000E+00  0.00000000E+00  0.00000000E+00  0.00000000E+00  0.00000000E+00
  0.00000000E+00  0.00000000E+00  0.00000000E+00  0.00000000E+00  0.00000000E+00
  0.00000000E+00  0.00000000E+00  0.00000000E+00  0.00000000E+00  0.00000000E+00
IOpCl                                      I                0
IROHF                                      I                0
Alpha Orbital Energies                     R   N=          38
 -2.44024566E+01 -1.00221462E+01 -8.77412052E-01 -4.65966787E-01 -2.22645205E-01
 -2.22640537E-01 -1.95416154E-01 -1.04618329E-01 -1.04616102E-01  1.01597445E-01
  2.96248392E-01  3.34648528E-01  3.76195443E-01  3.76198111E-01  7.58470147E-01
  7.58473965E-01  8.00408715E-01  1.07677193E+00  1.08368564E+00  1.08369353E+00
  1.16261108E+00  1.24028596E+00  1.39857100E+00  1.46329077E+00  1.46330926E+00
  1.76954849E+00  1.76955735E+00  1.94605733E+00  2.09429287E+00  2.10004071E+00
  2.10004374E+00  2.38974844E+00  2.38981746E+00  2.48508236E+00  2.48512107E+00
  3.10077044E+00  4.10115754E+00  4.44705331E+00
Alpha MO coefficients                      R   N=        1444
  8.75433631E-05  2.98483544E-05  1.02676604E-05 -5.81555108E-05  8.75492167E-05
  2.98355046E-05  8.75461733E-05  2.98378868E-05  2.48634909E-05 -2.29027940E-04
 -2.41002745E-04 -1.10786321E-09  3.43631197E-10 -9.91952903E-04  4.69721719E-04
  4.99317602E-09  5.16928394E-09  6.43870204E-04  9.49111393E-05  9.49135170E-05
  1.52308437E-09  2.02451059E-09 -1.05936975E-09  9.93025350E-01  1.95769684E-02
  3.87110988E-04  1.81107298E-09  1.75163113E-08  1.51135153E-02  5.78795722E-05
 -7.33275837E-10 -3.66681772E-09 -8.13609623E-03 -7.97725512E-03 -7.97725551E-03
 -8.26622790E-10 -3.61496244E-09  1.80275375E-10 -2.00146933E-04  2.63911662E-03
  1.10337672E-04  1.53573144E-04 -2.00130592E-04  2.63927772E-03 -2.00158543E-04
  2.63918974E-03  9.92960034E-01  4.84925463E-02 -3.06013034E-04 -8.51615444E-09
 -2.55547088E-08 -1.33265257E-02 -3.52205505E-04  6.00829783E-08  1.78599245E-07
 -9.21195159E-03 -8.96555330E-03 -8.96557321E-03  1.32690843E-09  2.02114743E-08
 -5.21558593E-09 -1.64216563E-04 -6.98506145E-04  2.78235017E-05  2.80136628E-09
 -1.00155971E-08  3.07925529E-03  1.76112409E-04 -1.15386435E-08  3.74995660E-08
 -1.05857809E-03 -4.36890521E-04 -4.36885327E-04 -5.03477922E-09  4.33331521E-10
 -6.94324189E-09  1.26048885E-02  3.58826800E-03  3.03036323E-04  2.18204021E-04
  1.26074089E-02  3.58941770E-03  1.26065302E-02  3.58946473E-03 -3.95462832E-02
  7.25285826E-02 -5.49099125E-02  7.12941339E-08 -1.55121311E-06  4.30028330E-02
 -1.44617668E-02 -4.75641687E-07  3.74341633E-07  8.19830797E-03 -4.00267622E-03
 -4.00279402E-03 -3.60498698E-08  3.86190406E-07  1.16656253E-07 -2.30048043E-01
  4.98504269E-01  4.68629060E-02  1.03191860E-07  8.77932953E-07  5.22516881E-01
  2.59635703E-02  9.59870833E-08  3.42179805E-07  1.82644397E-02  3.00847303E-03
  3.00857526E-03  4.94309516E-08  3.98053874E-07  6.68422708E-09  1.46623047E-01
  5.17196554E-02  1.19094580E-02  7.33429674E-03  1.46622581E-01  5.17170207E-02
  1.46623491E-01  5.17184480E-02 -1.93297170E-01  3.97145187E-01  5.43572693E-02
 -5.87716644E-07 -3.59423675E-06  3.29442751E-01  6.75149078E-03 -9.33418572E-07
 -1.14120462E-06 -1.73294014E-02  5.98846761E-03  5.98745041E-03 -3.08381798E-07
  2.09329214E-06 -9.07758108E-09  5.46858376E-02 -1.04402043E-01  1.29379477E-01
  5.31843489E-08 -1.66866872E-07 -2.05526180E-01  7.63968924E-02 -9.45167249E-09
 -3.30773072E-07  1.93939367E-02  5.33904034E-03  5.33892599E-03 -1.02811612E-08
 -1.65239920E-08  6.66560627E-08 -8.06311403E-02 -6.32294242E-02  2.12724585E-08
  3.35768164E-07 -1.54629708E-01 -1.21265430E-01  2.35260815E-01  1.84495680E-01
 -1.05225495E-06  3.23840532E-06  2.08651516E-06  4.17617064E-01  4.90791098E-02
  1.82898451E-07 -3.64645126E-07  1.95365778E-01  2.29549462E-02 -3.03168301E-08
  1.64302760E-02 -1.64308044E-02  5.60404239E-03  6.56898745E-04 -5.97280387E-03
 -2.45511675E-07 -3.41344924E-07 -3.31624405E-06  2.48494027E-01  2.92077828E-02
  2.30627895E-06 -2.68119137E-06  1.71464513E-01  2.01545394E-02 -6.58125904E-07
  4.99930774E-04 -5.00927692E-04  9.36098894E-03  1.10048582E-03 -1.81879777E-04
  2.25112942E-01  1.76538636E-01  4.72949417E-06  6.55434253E-06 -1.82364916E-01
 -1.43017040E-01 -4.27111184E-02 -3.34926808E-02 -3.48413231E-06  7.59136784E-06
  7.74677478E-05 -4.90802097E-02  4.17613785E-01  5.17667043E-06  2.75706945E-05
 -2.29653413E-02  1.95370758E-01 -3.26785817E-06 -5.17048329E-03  5.17230173E-03
 -6.60406039E-04  5.60487603E-03 -1.89725625E-02 -9.08614443E-06  1.08754399E-05
 -1.07414036E-04 -2.92010254E-02  2.48502344E-01  4.99936095E-05 -7.21600038E-05
 -2.01485311E-02  1.71470687E-01 -7.72605609E-06 -1.61153686E-04  1.54002322E-04
 -1.09978559E-03  9.36081908E-03 -5.77843309E-04 -7.01577890E-02 -6.48221304E-02
 -2.33223375E-02 -3.44491987E-02 -7.02211024E-02 -6.48774483E-02 -7.01986288E-02
 -6.48574408E-02  8.65371192E-03 -2.48617690E-02 -3.09668417E-01 -7.28968309E-06
  8.41216735E-05  3.48794318E-02 -1.27879014E-01 -3.95415012E-06  4.62433622E-05
  2.39350817E-02 -1.06386333E-02 -1.06367417E-02  1.39376740E-07 -1.52442109E-07
 -3.13908257E-06  3.45597731E-02 -2.99821245E-02  5.34453814E-01 -7.40640629E-06
  8.65468648E-05 -2.09793108E-01  3.65293615E-01 -6.12968422E-06  6.07762981E-05
  3.75208113E-02  1.79917313E-02  1.79916222E-02 -3.65081487E-07  3.02665756E-06
 -1.43634079E-07 -1.43401399E-01 -1.75647559E-01  7.73438818E-07  2.97703537E-06
  3.17325088E-02  3.88599992E-02  1.11678187E-01  1.36777657E-01 -2.23515282E-06
  2.40813149E-06  5.02131206E-06  1.40297749E-01 -1.44012074E-01  1.58930793E-05
  1.00965029E-05 -9.27884654E-04  9.47766018E-04 -2.72696146E-06  7.02709195E-03
 -7.02657105E-03  1.48747264E-02 -1.52684374E-02  5.67711631E-03 -1.88414955E-07
 -2.53396246E-06 -3.20860416E-05 -4.21299096E-01  4.32439781E-01  5.58016554E-06
 -2.23600760E-05 -3.17398590E-01  3.25793441E-01 -1.83372583E-06  3.68553367E-04
 -3.71265561E-04 -4.97262168E-03  5.10400173E-03  2.99018915E-04 -4.61569379E-02
 -5.65350953E-02  5.52699504E-07  2.81833979E-06  1.47274492E-01  1.80364133E-01
 -1.01108863E-01 -1.23832921E-01 -1.34255086E-06  1.30581588E-06  2.00994817E-06
 -1.44014685E-01 -1.40306352E-01  9.95597368E-06  6.38010502E-06  9.38128962E-04
  9.10531242E-04 -1.26562779E-06 -4.91585278E-03  4.91710753E-03 -1.52673995E-02
 -1.48741687E-02  8.11491718E-03  9.43996650E-08 -2.43971200E-06 -2.65472540E-05
  4.32442834E-01  4.21294889E-01  3.16831508E-06 -2.05000009E-05  3.25795884E-01
  3.17398668E-01 -1.82775350E-06 -2.59964695E-04  2.58145543E-04  5.10396645E-03
  4.97225242E-03  4.27457201E-04 -2.97337947E-02  6.58214254E-02  2.64961513E-01
  7.23444848E-01 -2.97426813E-02  6.57993024E-02 -2.97390818E-02  6.58062381E-02
  5.32589129E-02 -9.46428941E-02  7.75186330E-02  1.66685991E-06 -1.08291770E-05
 -3.54801390E-01  1.32855217E-01  3.31643556E-06 -1.56837574E-05  2.73882798E-02
 -5.73762443E-03 -5.73702680E-03  1.58559855E-07 -1.64226652E-06 -3.04879080E-07
 -1.91426757E-02  2.42642100E-02  1.64581187E-01  2.29231862E-07  6.09588767E-06
  1.58659161E-01  1.73700791E-01 -2.86253333E-07  7.54219482E-06 -5.69226477E-03
 -8.55805138E-03 -8.55807431E-03 -1.07585384E-08  2.60337464E-07 -9.87062281E-08
 -8.31295926E-04 -5.85562198E-01 -6.15554779E-02 -2.95499439E-01 -8.66327831E-04
 -5.85731290E-01 -8.52427934E-04 -5.85652557E-01 -2.44594841E-02  3.52892361E-03
  5.10538545E-01  3.54134155E-07 -5.00816261E-05  9.03671078E-01  8.81408203E-01
 -3.89622613E-06 -1.24853651E-04  9.34384371E-03 -1.28742092E-02 -1.28732440E-02
 -1.23341705E-07  1.50267554E-06 -2.21698604E-06 -5.42200779E-02  1.11106266E-01
  2.77067222E-01  1.71576512E-06  1.40144894E-05  3.94640978E-01  3.44056299E-01
  8.89027979E-07  1.63580046E-05  7.41762868E-05 -6.31053596E-03 -6.31059557E-03
  2.30644121E-07 -7.05763507E-07 -3.35577399E-07 -5.09239424E-02 -1.02035474E+00
  1.05673574E-01  3.08933602E-01 -5.08967009E-02 -1.02012037E+00 -5.09121734E-02
 -1.02023520E+00 -1.61585449E-01  2.44218564E-01 -2.26780479E-01 -4.20024234E-06
  4.54631752E-05  2.20147305E+00  7.01170835E-02 -1.94818676E-06  8.71316550E-05
 -2.76401391E-02 -6.95799379E-03 -6.95849280E-03  6.31056841E-09 -4.37630561E-07
  1.95038241E-06  3.39963664E-02 -5.21653893E-02 -2.34362772E-01  7.43215068E-08
 -2.41520340E-05 -2.73823740E-01 -2.66451683E-01  1.50034465E-07 -2.64916602E-05
  2.39913828E-02  6.35951276E-03  6.35970123E-03  6.07250922E-08  1.19539142E-06
  4.09226985E-07 -5.58804187E-02 -1.24962141E+00 -8.95483900E-06 -2.78271178E-05
  7.95109904E-02  1.77824206E+00 -2.36299477E-02 -5.28466346E-01  1.31814242E-05
 -1.36938102E-05  7.40708578E-05  1.48184008E-01  3.98225279E-01 -1.59681071E-04
  1.72140792E-04  4.74257395E-01  1.27443224E+00  3.19319482E-06 -2.22906907E-03
  2.22941464E-03  6.41822237E-06  1.50975918E-05  1.51530902E-02 -9.31450244E-06
  2.44701815E-06  4.27671833E-05 -2.47421525E-02 -6.65146861E-02  1.11843211E-04
  6.93976061E-05 -4.29143490E-02 -1.15347423E-01 -7.86163096E-06 -9.51228346E-04
  9.37145450E-04  8.55281787E-04  2.29954375E-03  6.41532182E-03 -5.95443407E-02
 -1.33175966E+00 -2.05906703E-06 -6.21602557E-06 -1.86139003E-02 -4.16378523E-01
  7.81631655E-02  1.74819085E+00  5.25066918E-06 -5.34967777E-06  2.75049028E-05
 -3.98224015E-01  1.48191091E-01 -6.77077583E-05  7.26723240E-05 -1.27446870E+00
  4.74234363E-01  9.27924088E-07  1.31228432E-02 -1.31218176E-02 -1.53347923E-05
  4.90372201E-06  2.57431395E-03 -3.78782746E-06 -1.38022467E-06  1.56626189E-05
  6.65158448E-02 -2.47613133E-02  4.89950261E-05  2.71028309E-05  1.15351027E-01
 -4.29324768E-02 -4.27100367E-06  5.55158247E-03 -5.55981325E-03 -2.29934080E-03
  8.56170597E-04  1.08937352E-03 -4.46183458E-01 -4.45003280E-01  3.84962702E-06
  5.27991392E-06  2.91301372E-01  2.90507970E-01  1.54874675E-01  1.54477317E-01
  1.89442441E-06 -2.13677908E-05  3.33775326E-05  2.10268793E-01 -7.14509370E-01
  1.55904930E-05  7.09595966E-05 -4.76522104E-01  1.61918266E+00 -5.24012573E-06
  3.99878803E-02 -3.99893648E-02  9.32022624E-03 -3.16498969E-02  8.99745297E-02
 -3.73084777E-06  1.19707786E-06  8.78785668E-06  4.72364235E-02 -1.60479120E-01
  4.51486459E-05  2.52166571E-05  3.47925184E-02 -1.18232839E-01 -4.55782127E-06
  4.28185829E-03 -4.28778545E-03 -3.82249448E-04  1.29047975E-03  9.64133236E-03
  7.87575556E-02  7.85997991E-02 -2.44366854E-06 -1.44032938E-05  3.47005586E-01
  3.46143796E-01 -4.25785251E-01 -4.24709547E-01  7.60652605E-07 -5.53896246E-06
 -1.93345089E-05 -7.14516996E-01 -2.10273176E-01 -1.20409573E-05  6.06667752E-05
  1.61925294E+00  4.76506580E-01 -2.51301961E-07 -7.79227408E-02  7.79203362E-02
 -3.16423174E-02 -9.30594943E-03  4.61812213E-02 -1.71227051E-06  3.23658410E-08
 -1.05961093E-06 -1.60474331E-01 -4.72159740E-02  3.06538162E-05  1.36612786E-05
 -1.18237347E-01 -3.47975793E-02  1.43970947E-06 -8.35398325E-03  8.34861890E-03
  1.28801348E-03  3.76620757E-04  4.94979020E-03 -9.25774986E-03  1.54083150E-01
 -2.24574226E-02 -3.97280889E-01 -9.23176684E-03  1.54239246E-01 -9.22183201E-03
  1.54191285E-01  1.74069453E-02  3.47360557E-01 -9.52676538E-01  1.91049848E-05
  1.28879937E-07 -8.92584241E-01  1.47587911E+00 -4.55982516E-05  9.17718824E-05
  1.29197053E-02  1.59778589E-02  1.59688413E-02  1.89592115E-06 -1.51444149E-06
  5.80213867E-06 -2.50548057E-02  1.12489711E-01 -1.84218678E-01  5.52384178E-06
 -3.12466001E-06  4.80900334E-01  3.53970342E-01  3.19243692E-06  5.64492382E-07
  1.69084667E-01 -8.82483675E-03 -8.82654984E-03  6.52068472E-07  3.42270392E-06
  1.34379360E-06 -6.52622992E-01  4.91372989E-01 -4.43562952E-01  1.79295551E-01
 -6.52758139E-01  4.91595310E-01 -6.52735163E-01  4.91608249E-01 -7.39983902E-02
  4.41239355E-01  1.75126864E-01  3.73553877E-05 -8.91729966E-05 -6.16623007E-01
  8.63920697E-02 -7.17387167E-05  9.34700912E-05  1.42135922E-01 -6.71932893E-02
 -6.71702462E-02  1.20071217E-06 -1.80309902E-05 -1.85338825E-05 -1.30219740E-02
 -4.97016151E-01 -4.26311535E-02  4.89949064E-06 -5.33411481E-06  9.28780535E-01
  3.33571150E-03  1.17360126E-06  6.05644538E-06 -1.90901562E-01 -2.19723294E-01
 -2.19723293E-01  2.68280444E-07  1.93500397E-06 -1.13431248E-06 -8.14697601E-01
  1.60649888E+00 -4.48913261E-05  1.19354896E-07  5.42983563E-01 -1.07084132E+00
  2.71503929E-01 -5.35495930E-01 -8.16973005E-06  3.96612203E-05  6.23552560E-05
 -2.28639706E-01  8.23369619E-01 -4.65911013E-05 -6.97851088E-05  3.47385686E-01
 -1.25096886E+00  5.14643022E-06  6.46344776E-02 -6.46394542E-02  3.22831060E-02
 -1.16216689E-01  1.51103671E-01 -5.34947794E-07  1.44687048E-05 -4.29754375E-07
  2.18603510E-02 -7.87300159E-02 -2.78719184E-05  4.78703361E-06 -3.47586055E-02
  1.25158790E-01  1.45741156E-06 -4.47517720E-03  4.48704607E-03 -1.75403810E-02
  6.31564481E-02 -1.04734874E-02  1.56739809E-01 -3.09118704E-01  1.63944961E-05
 -2.52230105E-05  6.27127695E-01 -1.23668965E+00 -7.83863526E-01  1.54571934E+00
 -1.46436094E-06 -4.98659398E-05 -1.82852430E-06  8.23370356E-01  2.28634810E-01
  1.19156934E-04  1.06479257E-05 -1.25095344E+00 -3.47359939E-01 -5.54891091E-06
 -1.30866946E-01  1.30862115E-01 -1.16208959E-01 -3.22582670E-02  7.46543859E-02
 -3.76039997E-07  8.43048332E-07  2.44894567E-06 -7.87422312E-02 -2.18682549E-02
 -5.01414747E-06 -4.34200832E-06  1.25159586E-01  3.47517248E-02 -4.07339427E-06
  9.07048039E-03 -9.06942366E-03  6.31557270E-02  1.75347736E-02 -5.17301534E-03
 -2.15402964E-01 -6.04769907E-01  7.88154852E-01 -1.00629007E+00 -2.15412131E-01
 -6.04813804E-01 -2.15368990E-01 -6.04847821E-01 -5.84434849E-02 -1.26957511E+00
 -2.43324105E-01 -1.57746201E-05  1.48851800E-05  3.03930708E+00  8.58869239E-01
  1.09737873E-05 -8.33771679E-05 -3.93671758E-02 -1.10415751E-01 -1.10416732E-01
  9.37423513E-06 -1.89813124E-05 -8.33342461E-06 -2.52546782E-02 -6.66423744E-01
  9.13455335E-02  1.39445126E-05 -2.09602587E-05  1.19439947E+00 -1.80807643E-01
 -1.13957509E-05  2.12293539E-05 -3.48572779E-01 -2.81826974E-01 -2.81823634E-01
 -4.13384712E-06  5.09324878E-06 -3.23237169E-06  2.36975673E-01 -8.60958209E-01
 -9.48007903E-01  8.00435165E-01  2.36979345E-01 -8.60980932E-01  2.36990334E-01
 -8.60990420E-01  8.33514072E-03 -1.05144928E+00 -2.88932299E-01 -3.45185229E-06
  1.86557373E-05  2.42000491E+00  3.70707151E-01 -1.54496693E-06 -4.44481749E-05
 -2.27821185E-02 -3.60779018E-02 -3.60830644E-02  2.64646670E-06 -7.57503102E-06
 -7.09635717E-07 -2.32593662E-02 -6.02370515E-01  1.99164095E-01  5.33637667E-06
 -3.52512676E-05  1.02879014E+00 -2.90449938E-01 -4.26838358E-06  2.81503535E-05
 -3.13080686E-01 -2.56373784E-01 -2.56371413E-01 -1.20696885E-06  3.92698255E-06
 -1.43730226E-06 -1.67470019E-01 -5.63875311E-01 -2.29483571E-01  1.77337976E-01
 -1.67557068E-01 -5.63900508E-01 -1.67527475E-01 -5.63898891E-01 -5.66455639E-02
 -1.12179442E+00  1.08224024E-01 -3.68576676E-07 -5.06186661E-06  2.71831272E+00
 -1.02534937E-01  1.89640426E-05 -1.10657605E-04 -1.27785553E-01 -3.19655083E-02
 -3.19180995E-02  2.05461084E-05 -5.21379846E-05 -5.11317559E-05  7.02950640E-02
  1.04030477E+00 -6.43450637E-01  6.99169591E-05 -1.28669392E-04 -2.40254597E+00
  4.95913351E-01 -7.74229253E-05  1.41301877E-04  3.54793235E-01  5.43673467E-01
  5.43679197E-01 -6.02247917E-06  7.55581406E-06 -9.20813441E-06  4.97770188E-02
  3.53913314E-02  3.17181199E-05 -2.43890006E-05 -1.42358678E-01 -1.00955464E-01
  9.26209754E-02  6.57720798E-02  4.60179542E-06  1.04088056E-04 -2.46755250E-06
  1.70751606E-02  1.80347074E-02 -2.62574420E-04 -3.79005114E-05 -3.10569877E-01
 -3.27913009E-01  8.01005537E-06  9.42429934E-02 -9.42357918E-02 -1.43052176E-01
 -1.51029582E-01 -1.69660375E-01 -1.43969205E-06 -8.36968386E-06  4.51930632E-05
 -6.11688667E-01 -6.45830759E-01  3.39861666E-05 -4.25721489E-05  7.14775481E-01
  7.54672605E-01  4.71456527E-06  1.15600771E-02 -1.15808358E-02  1.08529305E-02
  1.14554579E-02 -2.08322977E-02 -1.35711937E-01 -9.64942417E-02 -5.10956806E-05
  2.93684992E-05  2.46886695E-02  1.74288258E-02  1.10896416E-01  7.86336214E-02
 -1.22960252E-05 -2.49865576E-04  1.06663212E-05  1.80481253E-02 -1.70996082E-02
  6.14384522E-04  5.65935842E-05 -3.27981294E-01  3.10651569E-01 -1.39814006E-05
  1.46935818E-01 -1.46957757E-01 -1.51009090E-01  1.43020429E-01  1.08826563E-01
  6.90664274E-06  8.68361201E-05 -1.16150842E-04 -6.45830667E-01  6.11694549E-01
 -2.22222529E-04  9.92927346E-05  7.54687537E-01 -7.14798611E-01  1.36006107E-05
  1.80980754E-02 -1.79905358E-02  1.14405809E-02 -1.08327269E-02  1.33633717E-02
 -1.48686792E-02  2.35582726E-02 -2.66474182E-07 -6.67245648E-06  6.23239079E-02
 -9.87610759E-02 -4.74655396E-02  7.52100579E-02  9.00965606E-07  3.37901556E-06
  1.29957450E-05  7.42511025E-02  6.14450980E-02 -3.63629427E-05  3.01818997E-05
 -9.20501415E-02 -7.61738877E-02  1.07480096E-05 -1.80182039E-01  1.80165014E-01
  5.04794840E-01  4.17745198E-01  2.51297277E-01 -3.33039928E-06 -7.34509432E-05
 -4.36304630E-05 -1.94685548E-01 -1.61111119E-01  1.51115306E-04  6.46127635E-05
  2.94961098E-01  2.44094043E-01 -3.11665782E-05 -3.07507241E-02  3.06987712E-02
 -4.15472005E-01 -3.43826790E-01  4.28498402E-02 -6.34143105E-02  1.00463497E-01
  3.29459962E-06 -1.86786564E-05  1.88182289E-02 -2.98200058E-02  4.45795245E-02
 -7.06331088E-02  2.01097053E-06  4.56930336E-06  2.32952217E-05 -6.14504460E-02
  7.42537162E-02 -6.93612160E-05  6.56839470E-05  7.61735618E-02 -9.20438105E-02
  2.83166361E-05  2.17677141E-01 -2.17717673E-01 -4.17730359E-01  5.04778421E-01
  2.08105861E-01 -6.33899990E-06 -1.49244365E-04 -8.72675059E-05  1.61096665E-01
 -1.94664435E-01  3.04890545E-04  1.31704336E-04 -2.44074104E-01  2.94932353E-01
 -7.18884233E-05  3.70916440E-02 -3.71832591E-02  3.43813383E-01 -4.15459577E-01
  3.54989169E-02  2.88464666E-01  3.35996513E-01  8.68287019E-02 -1.45036359E-01
  2.88436811E-01  3.36027174E-01  2.88436239E-01  3.36003100E-01  7.31813111E-02
  7.63244710E-01  6.13208152E-02 -8.61612872E-07 -7.41717835E-06 -2.48567216E+00