Title Card Required                                                     
SP        RB3LYP                                                      6-31G(d)            
Number of atoms                            I                6
Info1-9                                    I   N=           9
          21          13           0           0           0         110
           1          18        -502
Charge                                     I               -1
Multiplicity                               I                1
Number of electrons                        I               20
Number of alpha electrons                  I               10
Number of beta electrons                   I               10
Number of basis functions                  I               38
Number of independent functions            I               38
Number of point charges in /Mol/           I                0
Number of translation vectors              I                0
Atomic numbers                             I   N=           6
           1           1           1           1           6           9
Nuclear charges                            R   N=           6
  1.00000000E+00  1.00000000E+00  1.00000000E+00  1.00000000E+00  6.00000000E+00
  9.00000000E+00
Current cartesian coordinates              R   N=          18
  1.26177425E+00 -5.74340423E-01  1.90833378E+00  3.98732105E+00  7.59940998E-05
 -2.60984057E-04  1.26129559E+00 -1.36554368E+00 -1.45137126E+00  1.26125282E+00
  1.93974308E+00 -4.56698420E-01  1.77066475E+00  1.59757309E-05 -1.01289883E-05
 -2.04395914E+00 -3.42529178E-06  6.40644467E-06
Force Field                                I                0
Int Atom Types                             I   N=           6
           0           0           0           0           0           0
MM charges                                 R   N=           6
  0.00000000E+00  0.00000000E+00  0.00000000E+00  0.00000000E+00  0.00000000E+00
  0.00000000E+00
Integer atomic weights                     I   N=           6
           1           1           1           1          12          19
Real atomic weights                        R   N=           6
  1.00782504E+00  1.00782504E+00  1.00782504E+00  1.00782504E+00  1.20000000E+01
  1.89984032E+01
Atom fragment info                         I   N=           6
           0           0           0           0           0           0
Atom residue num                           I   N=           6
           0           0           0           0           0           0
Nuclear spins                              I   N=           6
           1           1           1           1           0           1
Nuclear ZEff                               R   N=           6
 -1.00000000E+00 -1.00000000E+00 -1.00000000E+00 -1.00000000E+00 -3.60000000E+00
 -6.75000000E+00
Nuclear ZNuc                               R   N=           6
  1.00000000E+00  1.00000000E+00  1.00000000E+00  1.00000000E+00  6.00000000E+00
  9.00000000E+00
Nuclear QMom                               R   N=           6
  0.00000000E+00  0.00000000E+00  0.00000000E+00  0.00000000E+00  0.00000000E+00
  0.00000000E+00
Nuclear GFac                               R   N=           6
  2.79284600E+00  2.79284600E+00  2.79284600E+00  2.79284600E+00  0.00000000E+00
  2.62886700E+00
MicOpt                                     I   N=           6
          -1          -1          -1          -1          -1          -1
Number of contracted shells                I               16
Number of primitive shells                 I               38
Pure/Cartesian d shells                    I                1
Pure/Cartesian f shells                    I                0
Highest angular momentum                   I                2
Largest degree of contraction              I                6
Shell types                                I   N=          16
           0           0           0           0           0           0
           0           0           0          -1          -1           2
           0          -1          -1           2
Number of primitives per shell             I   N=          16
           3           1           3           1           3           1
           3           1           6           3           1           1
           6           3           1           1
Shell to atom map                          I   N=          16
           1           1           2           2           3           3
           4           4           5           5           5           5
           6           6           6           6
Primitive exponents                        R   N=          38
  1.87311370E+01  2.82539436E+00  6.40121692E-01  1.61277759E-01  1.87311370E+01
  2.82539436E+00  6.40121692E-01  1.61277759E-01  1.87311370E+01  2.82539436E+00
  6.40121692E-01  1.61277759E-01  1.87311370E+01  2.82539436E+00  6.40121692E-01
  1.61277759E-01  3.04752488E+03  4.57369518E+02  1.03948685E+02  2.92101553E+01
  9.28666296E+00  3.16392696E+00  7.86827235E+00  1.88128854E+00  5.44249258E-01
  1.68714478E-01  8.00000000E-01  7.00171309E+03  1.05136609E+03  2.39285690E+02
  6.73974453E+01  2.15199573E+01  7.40310130E+00  2.08479528E+01  4.80830834E+00
  1.34406986E+00  3.58151393E-01  8.00000000E-01
Contraction coefficients                   R   N=          38
  3.34946043E-02  2.34726953E-01  8.13757326E-01  1.00000000E+00  3.34946043E-02
  2.34726953E-01  8.13757326E-01  1.00000000E+00  3.34946043E-02  2.34726953E-01
  8.13757326E-01  1.00000000E+00  3.34946043E-02  2.34726953E-01  8.13757326E-01
  1.00000000E+00  1.83473713E-03  1.40373228E-02  6.88426223E-02  2.32184443E-01
  4.67941348E-01  3.62311985E-01 -1.19332420E-01 -1.60854152E-01  1.14345644E+00
  1.00000000E+00  1.00000000E+00  1.81961690E-03  1.39160796E-02  6.84053245E-02
  2.33185760E-01  4.71267439E-01  3.56618546E-01 -1.08506975E-01 -1.46451658E-01
  1.12868858E+00  1.00000000E+00  1.00000000E+00
P(S=P) Contraction coefficients            R   N=          38
  0.00000000E+00  0.00000000E+00  0.00000000E+00  0.00000000E+00  0.00000000E+00
  0.00000000E+00  0.00000000E+00  0.00000000E+00  0.00000000E+00  0.00000000E+00
  0.00000000E+00  0.00000000E+00  0.00000000E+00  0.00000000E+00  0.00000000E+00
  0.00000000E+00  0.00000000E+00  0.00000000E+00  0.00000000E+00  0.00000000E+00
  0.00000000E+00  0.00000000E+00  6.89990666E-02  3.16423961E-01  7.44308291E-01
  1.00000000E+00  0.00000000E+00  0.00000000E+00  0.00000000E+00  0.00000000E+00
  0.00000000E+00  0.00000000E+00  0.00000000E+00  7.16287242E-02  3.45912103E-01
  7.22469956E-01  1.00000000E+00  0.00000000E+00
Coordinates of each shell                  R   N=          48
  1.26177425E+00 -5.74340423E-01  1.90833378E+00  1.26177425E+00 -5.74340423E-01
  1.90833378E+00  3.98732105E+00  7.59940998E-05 -2.60984057E-04  3.98732105E+00
  7.59940998E-05 -2.60984057E-04  1.26129559E+00 -1.36554368E+00 -1.45137126E+00
  1.26129559E+00 -1.36554368E+00 -1.45137126E+00  1.26125282E+00  1.93974308E+00
 -4.56698420E-01  1.26125282E+00  1.93974308E+00 -4.56698420E-01  1.77066475E+00
  1.59757309E-05 -1.01289883E-05  1.77066475E+00  1.59757309E-05 -1.01289883E-05
  1.77066475E+00  1.59757309E-05 -1.01289883E-05  1.77066475E+00  1.59757309E-05
 -1.01289883E-05 -2.04395914E+00 -3.42529178E-06  6.40644467E-06 -2.04395914E+00
 -3.42529178E-06  6.40644467E-06 -2.04395914E+00 -3.42529178E-06  6.40644467E-06
 -2.04395914E+00 -3.42529178E-06  6.40644467E-06
Constraint Structure                       R   N=          18
  1.26177425E+00 -5.74340423E-01  1.90833378E+00  3.98732105E+00  7.59940998E-05
 -2.60984057E-04  1.26129559E+00 -1.36554368E+00 -1.45137126E+00  1.26125282E+00
  1.93974308E+00 -4.56698420E-01  1.77066475E+00  1.59757309E-05 -1.01289883E-05
 -2.04395914E+00 -3.42529178E-06  6.40644467E-06
Num ILSW                                   I              100
ILSW                                       I   N=         100
           0           1           0           0           2           0
           0           0           0           0         402          -1
           0           0           0           0           0           0
           0           0           1           0           0           0
           1           0           0           0           0           0
           0           0      100000           0          -1           0
           0           0           0           0           0           0
           0           0           0           1           0           0
           0           0           1           0           0           0
           0           0           4          41           0           0
           0           0           5           0           0           0
           0           0           0           0           0           0
           0           0           0           0           0           0
           0           0           0           0           0           0
           0           0           0           0           0           0
           0           0           0           0           0           0
           0           0           0           0
Num RLSW                                   I               41
RLSW                                       R   N=          41
  8.00000000E-01  7.20000000E-01  1.00000000E+00  8.10000000E-01  2.00000000E-01
  0.00000000E+00  0.00000000E+00  1.00000000E+00  0.00000000E+00  0.00000000E+00
  0.00000000E+00  0.00000000E+00  1.00000000E+00  0.00000000E+00  0.00000000E+00
  0.00000000E+00  0.00000000E+00  1.00000000E+00  0.00000000E+00  0.00000000E+00
  0.00000000E+00  0.00000000E+00  1.00000000E+00  0.00000000E+00  0.00000000E+00
  0.00000000E+00  0.00000000E+00  1.00000000E+00  0.00000000E+00  0.00000000E+00
  0.00000000E+00  0.00000000E+00  1.00000000E+00  0.00000000E+00  0.00000000E+00
  0.00000000E+00  0.00000000E+00  0.00000000E+00  1.00000000E+00  1.00000000E+00
  0.00000000E+00
MxBond                                     I                4
NBond                                      I   N=           6
           1           1           1           1           4           0
IBond                                      I   N=          24
           5           0           0           0           5           0
           0           0           5           0           0           0
           5           0           0           0           1           2
           3           4           0           0           0           0
RBond                                      R   N=          24
  1.00000000E+00  0.00000000E+00  0.00000000E+00  0.00000000E+00  1.00000000E+00
  0.00000000E+00  0.00000000E+00  0.00000000E+00  1.00000000E+00  0.00000000E+00
  0.00000000E+00  0.00000000E+00  1.00000000E+00  0.00000000E+00  0.00000000E+00
  0.00000000E+00  1.00000000E+00  1.00000000E+00  1.00000000E+00  1.00000000E+00
  0.00000000E+00  0.00000000E+00  0.00000000E+00  0.00000000E+00
Virial Ratio                               R      2.004501644572874E+00
SCF Energy                                 R     -1.402648086670666E+02
Total Energy                               R     -1.402648086670666E+02
RMS Density                                R      4.273924698574630E-09
External E-field                           R   N=          35
  0.00000000E+00  0.00000000E+00  0.00000000E+00  0.00000000E+00  0.00000000E+00
  0.00000000E+00  0.00000000E+00  0.00000000E+00  0.00000000E+00  0.00000000E+00
  0.00000000E+00  0.00000000E+00  0.00000000E+00  0.00000000E+00  0.00000000E+00
  0.00000000E+00  0.00000000E+00  0.00000000E+00  0.00000000E+00  0.00000000E+00
  0.00000000E+00  0.00000000E+00  0.00000000E+00  0.00000000E+00  0.00000000E+00
  0.00000000E+00  0.00000000E+00  0.00000000E+00  0.00000000E+00  0.00000000E+00
  0.00000000E+00  0.00000000E+00  0.00000000E+00  0.00000000E+00  0.00000000E+00
IOpCl                                      I                0
IROHF                                      I                0
Alpha Orbital Energies                     R   N=          38
 -2.41635487E+01 -9.94176068E+00 -6.42180087E-01 -4.40397889E-01 -1.62390506E-01
 -1.62382963E-01 -1.26926211E-01  8.66159008E-02  8.66169691E-02  9.92642756E-02
  3.26067821E-01  3.97953700E-01  4.02933537E-01  4.02951597E-01  7.62364191E-01
  7.62370437E-01  9.31189516E-01  1.04714368E+00  1.13848827E+00  1.13850900E+00
  1.15763452E+00  1.37212471E+00  1.50357103E+00  1.60395478E+00  1.60397182E+00
  1.91534220E+00  1.91534585E+00  2.02915834E+00  2.24284513E+00  2.28768432E+00
  2.28769467E+00  2.29925221E+00  2.29925709E+00  2.52712200E+00  2.52715167E+00
  2.82141185E+00  4.08688804E+00  4.42916823E+00
Alpha MO coefficients                      R   N=        1444
  4.67169623E-05 -2.32025888E-04 -8.59049838E-05 -3.89312986E-04  4.66674517E-05
 -2.32147518E-04  4.66673910E-05 -2.32148178E-04 -7.17502764E-06  1.79777415E-05
 -1.45865941E-05 -4.61244194E-10  6.25536095E-09  4.22398257E-04  6.99634821E-04
  2.70386889E-08 -1.08322965E-07 -1.26150029E-04 -4.31882231E-05 -4.32177742E-05
 -1.28391594E-09 -2.88009628E-10  1.13593839E-08  9.93034745E-01  1.95314257E-02
 -5.57225446E-05  1.33993801E-09  1.21325375E-08  1.49846382E-02  3.62138617E-04
  4.62539991E-09 -1.21486325E-08 -7.91143135E-03 -8.02123523E-03 -8.02124034E-03
  2.09170427E-09 -1.30633522E-09  1.97718089E-09 -6.20162648E-05  2.82418370E-03
 -5.90808641E-05  1.95236590E-03 -6.19655778E-05  2.82389916E-03 -6.20075211E-05
  2.82383672E-03  9.92958241E-01  4.94198453E-02  4.07967180E-05 -6.60070731E-08
  1.72135267E-07 -1.54172956E-02  6.24524274E-04  2.42271203E-07 -3.43163804E-07
 -9.26455459E-03 -8.99917703E-03 -8.99921269E-03 -1.52533389E-08  1.63812598E-08
 -1.18764380E-08 -6.39160592E-05 -3.83544746E-04 -3.70198765E-05  8.88846612E-09
 -2.55366120E-08  1.42041070E-03  6.12729256E-04 -3.62977125E-08  1.06652970E-07
 -1.05540062E-04 -2.60953271E-04 -2.60925983E-04 -1.20360687E-08  3.09122945E-08
 -7.54391640E-09  2.03557691E-02  1.48208797E-02  9.42216582E-03  1.28200176E-02
  2.03619073E-02  1.48284559E-02  2.03623526E-02  1.48284966E-02 -2.85199446E-02
  5.53864173E-02 -2.34749935E-02  1.42368975E-07 -7.03201138E-07  2.64171299E-02
 -2.54348049E-02 -5.23912867E-08  4.07929263E-06  2.06445956E-03 -2.35216543E-04
 -2.35419041E-04 -3.34182909E-07  3.49552061E-07 -8.05079534E-08 -2.33938329E-01
  4.76599056E-01  1.22696215E-02  4.48010548E-07 -1.33842548E-07  5.87567100E-01
  2.68592743E-03  3.52030914E-07 -5.41989032E-07 -1.75525156E-03 -5.31082385E-03
 -5.31130745E-03  3.05569957E-07  5.19133499E-08  1.72832649E-07  1.32967799E-01
  5.03442952E-02  1.26055476E-01  3.67295638E-02  1.32956174E-01  5.03349234E-02
  1.32955398E-01  5.03349398E-02 -1.93873737E-01  3.78873475E-01  2.56598908E-02
 -5.68434307E-06  1.04784449E-05  3.35924130E-01  5.39309016E-02  7.48653257E-07
  6.53501511E-07 -6.33963410E-03  3.47839345E-03  3.47708386E-03 -1.03190822E-06
  1.52354563E-06 -4.83263028E-07  4.51241448E-02 -9.02644319E-02  3.64613217E-02
  4.29898636E-07 -8.56359454E-07 -1.36396376E-01  2.40169428E-02  6.12627484E-07
  6.01743378E-08  7.43357875E-03  2.26974205E-03  2.26961375E-03  1.73868073E-07
 -2.27591150E-07  4.69947255E-08 -1.26405862E-01 -1.14590283E-01 -1.67837231E-05
 -2.01410164E-05 -1.42376292E-01 -1.29054396E-01  2.68794893E-01  2.43641917E-01
 -6.37193433E-06  1.02811114E-05 -5.88360655E-05  4.29023096E-01 -8.56181514E-02
  2.90744845E-05 -2.53447452E-05  2.01510497E-01 -4.02063292E-02 -1.23650392E-06
  1.65456823E-02 -1.65468165E-02 -5.96717601E-03  1.18752567E-03 -1.03570975E-02
  6.79317859E-06 -9.29446848E-06  2.50799602E-05  5.67053931E-02 -1.13110808E-02
 -3.47452790E-05  1.47805527E-05  3.32203181E-02 -6.62631143E-03  3.62271893E-06
  3.11592182E-04 -3.06382173E-04  2.38971223E-03 -4.76534415E-04 -1.93565322E-04
  2.37390721E-01  2.15203815E-01  1.90860115E-06  4.06763103E-06 -2.28171270E-01
 -2.06826328E-01 -9.22782826E-03 -8.36483233E-03  6.54594481E-06 -1.34819411E-05
  6.17472924E-05  8.56176016E-02  4.29021582E-01 -2.52088261E-05  2.50253039E-05
  4.02204353E-02  2.01503143E-01 -1.08258277E-06 -8.97346464E-03  8.97563952E-03
 -1.19279264E-03 -5.96072648E-03 -1.91078095E-02 -8.21950412E-06  8.94549367E-06
 -2.86203574E-05  1.13202508E-02  5.66978414E-02  4.58635728E-05 -1.57144346E-05
  6.63216139E-03  3.32165154E-02 -5.84900513E-06 -1.72016317E-04  1.62774216E-04
  4.77136199E-04  2.38903429E-03 -3.56724780E-04 -9.13149454E-02 -8.39352472E-02
  2.74232463E-01  3.68347339E-01 -9.13063609E-02 -8.39125748E-02 -9.12837965E-02
 -8.38915079E-02  1.60220404E-02 -3.76137812E-02  4.06801360E-01  4.79760299E-05
 -7.26719428E-05 -5.95490917E-02  1.60889065E-01  2.21404829E-05 -3.01945776E-05
  3.00032522E-02 -1.18767495E-02 -1.18778670E-02  1.22028235E-06 -4.40312110E-06
 -4.15821262E-07 -3.10699664E-02  4.44402182E-02 -1.51933691E-01  3.24288445E-06
 -3.06418876E-06  1.55485328E-01 -9.55946014E-02  8.73934667E-07 -2.18505611E-06
 -1.58918267E-02 -1.08731529E-02 -1.08728956E-02 -1.45675201E-07  1.77668264E-07
 -9.62024846E-08 -1.15341827E-02  2.42635635E-02  1.35212018E-05  5.05315839E-05
  4.39830247E-02 -9.28547332E-02 -3.24740397E-02  6.85198307E-02  1.52999839E-06
 -8.56463867E-06  3.20855411E-06 -8.42254502E-02 -5.13619800E-02  1.66026143E-05
 -3.58740875E-05 -9.54376923E-02 -5.81682146E-02  2.33131553E-06 -1.77944801E-03
  1.77587847E-03 -6.94646165E-03 -4.23775973E-03  6.00617224E-03  2.01849749E-07
  4.11676650E-06  5.80442118E-05  5.33741992E-01  3.25533519E-01 -1.01616928E-05
  4.38145602E-05  4.40225874E-01  2.68499360E-01  1.40676176E-06 -6.81074314E-05
  7.10910552E-05  1.53524100E-03  9.36424820E-04  2.35089087E-04 -4.41712967E-02
  9.30079039E-02  3.31980021E-05  1.24954845E-04  1.20723476E-02 -2.55306301E-02
  3.20294013E-02 -6.76734048E-02  7.45301095E-07 -1.50769603E-05 -3.04740598E-07
  5.13616383E-02 -8.42000132E-02  6.09180697E-05 -1.02177242E-04  5.81800427E-02
 -9.53262095E-02  5.47951065E-06  5.19687545E-03 -5.20519630E-03  4.23744791E-03
 -6.94948705E-03  2.05225527E-03  1.62352814E-06  1.24366572E-05  1.51143691E-04
 -3.25534399E-01  5.33748048E-01 -3.68207622E-05  1.11800847E-04 -2.68497524E-01
  4.40233475E-01  6.96031994E-06  2.12225396E-04 -1.96128273E-04 -9.36720607E-04
  1.53596516E-03  8.03080564E-05 -6.89911725E-02 -1.16435310E-01  1.19885468E-01
  4.29913830E-01 -6.90269007E-02 -1.16407464E-01 -6.90272206E-02 -1.16421694E-01
  3.03030121E-02 -7.47052538E-02  5.92731280E-02 -1.26466167E-05  4.69106295E-05
 -8.65785215E-02 -1.96221597E-01 -1.60121353E-05  7.66799791E-05  2.97300430E-02
 -1.33518477E-02 -1.33451026E-02  4.04746546E-07 -1.03005610E-06 -2.16560603E-06
  1.14524558E-03  4.24937325E-02  6.01063114E-01  2.98582542E-05 -1.70159351E-04
 -8.70455036E-02  4.68403930E-01  2.63982861E-05 -1.42893213E-04  2.18391282E-02
  2.28116662E-02  2.28117010E-02  6.59982025E-08 -6.19866480E-07 -1.98389972E-07
 -3.61489854E-02 -1.00219139E+00  2.34841346E-02 -9.64366472E-01 -3.61549712E-02
 -1.00194929E+00 -3.61600127E-02 -1.00193173E+00 -1.63123243E-01  1.51692794E-01
  1.12372027E-01 -1.33229715E-05  2.93607388E-05  2.63641595E+00  6.35825136E-02
 -7.03735120E-05  1.36036757E-04 -1.38182014E-02 -2.05893708E-02 -2.05874318E-02
 -2.07684304E-07  5.09432245E-07 -6.43644353E-07 -1.46069302E-02  3.53225595E-02
  2.47996126E-02  3.04056865E-06 -1.29412852E-05  6.43551367E-02  2.69646255E-02
  8.17661148E-06 -2.54947600E-05 -1.96231854E-03 -9.85496394E-04 -9.86334416E-04
  6.23583302E-07 -1.80591356E-06  2.36396344E-07  5.02486318E-03 -6.01159809E-01
  4.75615835E-02  1.64269208E+00  5.08908142E-03 -5.99997458E-01  5.10343434E-03
 -5.99755082E-01 -2.29381961E-02  7.14375784E-02 -4.85925081E-01 -9.84652632E-05
  2.14244661E-04  2.05962726E-01 -1.19840981E+00 -3.51340061E-04  7.54549214E-04
 -1.72178144E-02  3.74199518E-03  3.72906435E-03 -2.00332450E-06  2.43355995E-06
  3.44820187E-06  2.50983110E-02 -2.28404679E-03 -1.69729199E-01 -1.26866723E-05
  1.08888877E-05 -2.57929372E-01 -2.36815137E-01 -8.74235624E-06  4.05435464E-06
  2.26345552E-02  2.29033021E-02  2.29004696E-02  5.38031217E-07 -4.38399637E-07
  8.53928116E-07  9.87963398E-02  1.82238394E+00  2.34174358E-05  6.48415282E-04
 -6.58382294E-02 -1.21476020E+00 -3.29717385E-02 -6.08623203E-01 -2.28390251E-05
  5.75991954E-05 -2.46226402E-04  3.67633766E-02 -3.56906939E-01  2.62156308E-04
 -7.44280220E-04  1.48579861E-01 -1.44258260E+00 -6.75774993E-06 -9.11582178E-03
  9.11757209E-03  7.11970944E-04 -6.91728075E-03 -1.02980894E-02  4.31928151E-06
  6.60249781E-07 -6.98041735E-05  8.44710094E-03 -8.20906947E-02 -5.16541274E-05
 -8.64287454E-05  8.43129090E-03 -8.19702091E-02  4.49491974E-06 -1.98117922E-03
  1.98768262E-03  2.54469186E-05 -2.50019864E-04 -2.24115311E-03 -1.89616890E-02
 -3.49873590E-01 -3.77018083E-06 -2.57971243E-04 -7.60815930E-02 -1.40346350E+00
  9.50539418E-02  1.75368205E+00  7.69079621E-06 -1.88844641E-05  8.91293561E-05
 -3.56898373E-01 -3.67520165E-02 -8.50809854E-05  2.57130307E-04 -1.44265137E+00
 -1.48573624E-01  3.01294330E-06  8.91764392E-03 -8.91824934E-03 -6.92058411E-03
 -7.13384261E-04 -1.05294165E-02 -2.44725867E-06  1.40448949E-06  2.82701025E-05
 -8.21534006E-02 -8.46844207E-03  2.45843267E-05  3.51769215E-05 -8.20491251E-02
 -8.46115874E-03 -1.57559676E-06  1.93925580E-03 -1.94181195E-03 -2.51458665E-04
 -2.61812940E-05 -2.29077509E-03 -2.17037693E-01 -1.41950073E-01  1.71464048E-05
 -3.84562597E-05  4.54771950E-01  2.97560894E-01 -2.37773448E-01 -1.55613386E-01
 -8.35680277E-07 -1.05239152E-05 -4.13478263E-05 -5.52527780E-01 -5.57181215E-01
  4.19163047E-05  1.01428048E-04  1.08747685E+00  1.09657508E+00  1.09730523E-05
 -6.47406507E-03  6.46339114E-03  3.38045777E-02  3.40704415E-02  8.53758570E-02
 -1.86553736E-06 -2.37242865E-05 -1.27033747E-05 -3.60747997E-02 -3.64059296E-02
  6.01927554E-05  1.68098985E-05 -5.00016205E-02 -5.04232392E-02 -6.61527489E-06
 -5.77041395E-04  5.49051074E-04 -3.13186200E-03 -3.15120312E-03  7.41175487E-03
  3.99849082E-01  2.61620829E-01 -6.96671042E-05  8.77695563E-05 -1.19703369E-02
 -7.78230378E-03 -3.87863551E-01 -2.53842044E-01 -1.46504894E-06 -3.85936436E-05
  6.69384088E-05 -5.57182001E-01  5.52512842E-01  3.57329823E-05 -1.97096991E-04
  1.09667417E+00 -1.08742236E+00 -3.09081477E-05 -7.39375038E-02  7.39504281E-02
  3.40823329E-02 -3.37776715E-02 -7.48735331E-03  4.17140715E-06  3.84504769E-05
  2.05208490E-05 -3.63899912E-02  3.61121014E-02 -1.10398835E-04 -3.78125882E-05
 -5.04229678E-02  5.00008469E-02  8.77766988E-06 -6.39350271E-03  6.44259880E-03
 -3.15487124E-03  3.12143042E-03 -6.48216166E-04  1.18666109E-01 -1.39578688E-01
 -7.30031262E-01 -2.86376790E-01  1.18676184E-01 -1.39461812E-01  1.18680746E-01
 -1.39411781E-01 -2.04434513E-02 -1.77582468E-01 -6.02740036E-01  1.86641577E-05
 -2.01561124E-05  7.04573829E-01  1.47095528E+00 -4.34397104E-05  7.21554117E-06
 -1.47598406E-01  4.48704381E-02  4.48560354E-02 -1.04785688E-05  4.25454215E-05
  8.23870454E-07 -2.25700166E-02  4.41782926E-01  1.03846135E-01 -3.57363484E-06
  2.36838321E-05 -3.69019192E-01  2.45487523E-01  2.52931096E-06 -1.06162319E-05
  1.93734315E-01  1.62611086E-01  1.62608728E-01  1.23542291E-06 -7.59259362E-06
 -3.04685712E-08  2.76475764E-01 -3.93489870E-01 -7.09220891E-01  1.90882572E+00
  2.76423874E-01 -3.93347786E-01  2.76394454E-01 -3.93317463E-01  7.03671690E-03
  2.65157767E-01  9.30403908E-01  7.02330162E-05 -1.81127872E-04 -6.84510577E-01
 -1.62427321E+00 -9.38662194E-05  2.81463592E-04 -1.63785955E-01  9.36201754E-02
  9.36232851E-02 -6.44553579E-06  2.67018966E-05  4.58328276E-07  1.71550904E-02
  8.07520684E-02  9.12694205E-02 -7.73650420E-07 -6.46431209E-06 -3.93698357E-01
 -2.24492493E-01  3.20330361E-06 -1.17219271E-05 -2.23420452E-02  7.14520846E-02
  7.14486340E-02  1.00471939E-06 -2.87451137E-06  1.33516105E-06 -8.07168845E-01
  1.48160194E+00 -5.77882189E-05  6.11296390E-05  6.42286229E-01 -1.17887354E+00
  1.64966313E-01 -3.02748043E-01  3.16852837E-06  3.57010854E-05  1.41639557E-04
  3.11725067E-02  8.49746460E-01 -9.29101811E-05 -1.54760972E-04 -4.32131963E-02
 -1.17782993E+00  1.52970943E-05  9.89363451E-02 -9.89421674E-02  3.59681607E-03
  9.75427272E-02  1.48056978E-01 -2.41958312E-06  4.76910846E-05 -2.34802880E-05
 -2.27614245E-03 -6.20413475E-02 -3.70230035E-05  4.33443638E-05 -1.10494210E-04
 -2.67197867E-03  2.60184315E-05 -5.53795616E-03  5.56803958E-03 -1.62865417E-04
 -4.29617890E-03 -8.30834329E-03  2.75565765E-01 -5.05837518E-01  3.14287018E-05
 -5.49805830E-05  5.61256511E-01 -1.03022373E+00 -8.36871401E-01  1.53602230E+00
 -2.89238785E-06 -5.31114252E-05 -6.57576007E-05  8.49744245E-01 -3.11812679E-02
  1.34099756E-04  7.12734176E-05 -1.17783643E+00  4.32157360E-02 -6.46818792E-06
 -1.28215347E-01  1.28209646E-01  9.76099922E-02 -3.56295426E-03  1.14216398E-01
  1.28013733E-06 -2.77701394E-05  6.98375037E-06 -6.20449661E-02  2.27662954E-03
  2.45850259E-05 -2.11300073E-05 -2.70844143E-03  8.67794196E-05 -1.31060524E-05
  7.18405428E-03 -7.20296634E-03 -4.31247381E-03  1.52990560E-04 -6.40719159E-03
  5.94747913E-01 -6.51054918E-01  5.93267604E-01 -5.16561535E-01  5.94733998E-01
 -6.51066190E-01  5.94727242E-01 -6.51117641E-01  8.35570649E-02 -9.99923698E-01
  1.45905190E-02  2.07912402E-06 -2.31282515E-05  1.66173677E+00 -1.01945520E-01
  3.30471371E-05  5.95769552E-06 -6.86820103E-02 -2.16482704E-02 -2.16546318E-02
 -6.39956890E-06  1.52978660E-05 -1.24599594E-06  8.47182786E-03  3.28066583E-01
  7.84266038E-03 -1.00732896E-05  2.57972655E-05 -5.81998526E-01 -1.07150868E-02
  1.07175006E-05 -3.15716180E-05  1.29379373E-01  1.48718681E-01  1.48713987E-01
  4.84349410E-06 -1.37893670E-05  1.88951367E-06 -1.53961299E-01 -9.38857653E-01
 -3.91987803E-01 -5.55634875E-01 -1.53921556E-01 -9.38876462E-01 -1.53875100E-01
 -9.38879179E-01 -7.49946709E-02 -1.64599601E+00  3.59732561E-02  1.18800317E-06
  8.63222523E-06  4.30544325E+00  8.63820425E-02 -7.23653324E-05  3.25780263E-05
 -1.37619616E-01 -6.81725264E-02 -6.82004335E-02 -4.25726666E-06 -1.16102099E-05
  1.93585771E-06 -3.78301223E-02 -1.10652924E+00  1.60931526E-01  3.10389579E-05
 -1.03072553E-04  1.96823240E+00 -3.00659624E-01 -1.86994781E-05  7.46339489E-05
 -5.02818348E-01 -4.88856411E-01 -4.88842107E-01 -3.77654530E-06  1.47696078E-05
 -3.45678637E-06 -2.48231882E-01 -4.63522123E-01 -2.73327278E-01  1.42815464E-01
 -2.48296184E-01 -4.63220082E-01 -2.48274154E-01 -4.63204570E-01 -5.68184344E-02
 -1.00852596E+00  3.30352223E-01  2.21501518E-05 -5.30418677E-05  2.38621897E+00
 -7.35911898E-01 -1.07642359E-04  2.00636111E-04  2.99370985E-02 -7.57796125E-02
 -7.57801838E-02  2.36628513E-05 -1.06761479E-04  2.61343938E-06  8.63586484E-02
  1.02931831E+00 -6.60009837E-01  5.96183905E-05 -2.34508139E-04 -2.36633788E+00
  3.99192272E-01 -5.72492751E-05  2.30364988E-04  5.52949502E-01  5.11710247E-01
  5.11716416E-01 -9.05442427E-06  2.70864771E-05 -1.92003817E-06  4.83391799E-02
 -2.86173022E-01  1.52260425E-04 -5.30051901E-06 -3.03319082E-02  1.80557696E-01
 -1.78198979E-02  1.06294563E-01  1.58557153E-05  3.71236043E-04 -1.01970416E-04
  7.33132787E-04 -5.07322755E-03 -9.22608626E-04  1.32753746E-04 -1.35047071E-02
  9.33664092E-02 -8.33986692E-05  3.19588248E-02 -3.18550537E-02  3.64599751E-02
 -2.51823923E-01  3.31948785E-02 -8.24988932E-06  3.15443327E-05  2.37133375E-04
  1.33047879E-01 -9.19093670E-01  2.76710431E-05 -2.01467093E-04 -1.44330698E-01
  9.97043114E-01 -3.10473240E-05  7.23025085E-03 -7.22210736E-03 -2.50598664E-03
  1.73034289E-02  7.51622137E-03 -7.23275823E-03  4.28515344E-02 -2.30212992E-05
 -7.56236061E-06 -3.81937484E-02  2.26720205E-01  4.54005949E-02 -2.69647091E-01
 -2.11041351E-06 -3.96072926E-05  8.73050350E-06 -5.10741214E-03 -7.40791403E-04
  1.08028218E-04 -2.37666118E-06  9.35522947E-02  1.35540645E-02  1.23772762E-05
 -2.88008339E-02  2.87856142E-02 -2.51786315E-01 -3.64435532E-02  3.69246275E-02
 -3.59860797E-07 -1.26774881E-05 -2.55289743E-05 -9.19101001E-01 -1.33052415E-01
  2.25544823E-05  2.46588478E-05  9.97068304E-01  1.44340414E-01 -1.93386911E-06
 -6.51985414E-03  6.50690568E-03  1.72952232E-02  2.50255399E-03  8.34941301E-03
  9.15963394E-04  3.30307452E-02  4.04634021E-05  7.18408991E-05  1.22742201E-03
  4.36767444E-02 -2.33763962E-03 -7.68594155E-02 -1.54959713E-05 -1.15399283E-04
  3.57612845E-05 -4.51864075E-03  6.86736709E-04  3.26960755E-04 -2.73605489E-04
  4.32046523E-02 -6.58505233E-03 -1.03299289E-04  3.42121661E-01 -3.42047004E-01
  8.07023820E-01 -1.23381023E-01 -2.38073115E-01  1.52042759E-05  2.31427342E-04
  1.22376704E-04 -2.50913450E-01  3.83527614E-02 -5.12900609E-04 -2.19215091E-04
  3.09500962E-01 -4.73071611E-02  1.19097132E-04  4.58744027E-03 -4.41761352E-03
 -2.23832319E-01  3.42174238E-02 -3.13473631E-03 -1.89778235E-03 -6.94196289E-02
 -1.04378568E-04 -1.89296556E-04  2.05256303E-03  6.35571336E-02  3.54736787E-04
  6.23301983E-03  4.13631877E-05  2.85878589E-04 -8.96140449E-05 -6.93123345E-04
 -4.50946169E-03 -8.30011644E-04  7.08670479E-04  6.61309615E-03  4.31660289E-02
  2.57442732E-04 -2.06013490E-01  2.05838143E-01  1.23295120E-01  8.07151262E-01
 -3.94922397E-01 -4.02113044E-05 -6.21152771E-04 -3.27842502E-04 -3.83380602E-02
 -2.50928556E-01  1.36942865E-03  5.82232005E-04  4.72904872E-02  3.09517659E-01
 -3.16154987E-04 -2.94016856E-03  2.48371886E-03 -3.41985154E-02 -2.23860707E-01
 -5.20135732E-03  2.71649007E-01  1.79590180E-01 -7.51803245E-02 -4.47519302E-01
  2.71599337E-01  1.79415512E-01  2.71581185E-01  1.79407764E-01  6.05486638E-02
  5.30825478E-01 -2.30762492E-01 -7.69157130E-06  2.35346717E-05 -1.29019613E+00