Title Card Required                                                     
SP        RB3LYP                                                      6-31G(d)            
Number of atoms                            I                6
Info1-9                                    I   N=           9
          14          13           0           0           0         110
           1          18        -502
Charge                                     I               -1
Multiplicity                               I                1
Number of electrons                        I               20
Number of alpha electrons                  I               10
Number of beta electrons                   I               10
Number of basis functions                  I               38
Number of independent functions            I               38
Number of point charges in /Mol/           I                0
Number of translation vectors              I                0
Atomic numbers                             I   N=           6
           1           1           1           1           6           9
Nuclear charges                            R   N=           6
  1.00000000E+00  1.00000000E+00  1.00000000E+00  1.00000000E+00  6.00000000E+00
  9.00000000E+00
Current cartesian coordinates              R   N=          18
  1.61809510E+00 -1.39510008E+00 -1.44903909E+00  4.93313236E+00  2.33951201E-03
  5.40371306E-04  1.61802923E+00  1.95167014E+00 -4.83121691E-01  1.61826771E+00
 -5.58375369E-01  1.93178692E+00  1.28942668E+00 -4.85866384E-04 -1.41625480E-04
 -1.94712050E+00  2.64555282E-04  7.59159830E-05
Force Field                                I                0
Int Atom Types                             I   N=           6
           0           0           0           0           0           0
MM charges                                 R   N=           6
  0.00000000E+00  0.00000000E+00  0.00000000E+00  0.00000000E+00  0.00000000E+00
  0.00000000E+00
Integer atomic weights                     I   N=           6
           1           1           1           1          12          19
Real atomic weights                        R   N=           6
  1.00782504E+00  1.00782504E+00  1.00782504E+00  1.00782504E+00  1.20000000E+01
  1.89984032E+01
Atom fragment info                         I   N=           6
           0           0           0           0           0           0
Atom residue num                           I   N=           6
           0           0           0           0           0           0
Nuclear spins                              I   N=           6
           1           1           1           1           0           1
Nuclear ZEff                               R   N=           6
 -1.00000000E+00 -1.00000000E+00 -1.00000000E+00 -1.00000000E+00 -3.60000000E+00
 -6.75000000E+00
Nuclear ZNuc                               R   N=           6
  1.00000000E+00  1.00000000E+00  1.00000000E+00  1.00000000E+00  6.00000000E+00
  9.00000000E+00
Nuclear QMom                               R   N=           6
  0.00000000E+00  0.00000000E+00  0.00000000E+00  0.00000000E+00  0.00000000E+00
  0.00000000E+00
Nuclear GFac                               R   N=           6
  2.79284600E+00  2.79284600E+00  2.79284600E+00  2.79284600E+00  0.00000000E+00
  2.62886700E+00
MicOpt                                     I   N=           6
          -1          -1          -1          -1          -1          -1
Number of contracted shells                I               16
Number of primitive shells                 I               38
Pure/Cartesian d shells                    I                1
Pure/Cartesian f shells                    I                0
Highest angular momentum                   I                2
Largest degree of contraction              I                6
Shell types                                I   N=          16
           0           0           0           0           0           0
           0           0           0          -1          -1           2
           0          -1          -1           2
Number of primitives per shell             I   N=          16
           3           1           3           1           3           1
           3           1           6           3           1           1
           6           3           1           1
Shell to atom map                          I   N=          16
           1           1           2           2           3           3
           4           4           5           5           5           5
           6           6           6           6
Primitive exponents                        R   N=          38
  1.87311370E+01  2.82539436E+00  6.40121692E-01  1.61277759E-01  1.87311370E+01
  2.82539436E+00  6.40121692E-01  1.61277759E-01  1.87311370E+01  2.82539436E+00
  6.40121692E-01  1.61277759E-01  1.87311370E+01  2.82539436E+00  6.40121692E-01
  1.61277759E-01  3.04752488E+03  4.57369518E+02  1.03948685E+02  2.92101553E+01
  9.28666296E+00  3.16392696E+00  7.86827235E+00  1.88128854E+00  5.44249258E-01
  1.68714478E-01  8.00000000E-01  7.00171309E+03  1.05136609E+03  2.39285690E+02
  6.73974453E+01  2.15199573E+01  7.40310130E+00  2.08479528E+01  4.80830834E+00
  1.34406986E+00  3.58151393E-01  8.00000000E-01
Contraction coefficients                   R   N=          38
  3.34946043E-02  2.34726953E-01  8.13757326E-01  1.00000000E+00  3.34946043E-02
  2.34726953E-01  8.13757326E-01  1.00000000E+00  3.34946043E-02  2.34726953E-01
  8.13757326E-01  1.00000000E+00  3.34946043E-02  2.34726953E-01  8.13757326E-01
  1.00000000E+00  1.83473713E-03  1.40373228E-02  6.88426223E-02  2.32184443E-01
  4.67941348E-01  3.62311985E-01 -1.19332420E-01 -1.60854152E-01  1.14345644E+00
  1.00000000E+00  1.00000000E+00  1.81961690E-03  1.39160796E-02  6.84053245E-02
  2.33185760E-01  4.71267439E-01  3.56618546E-01 -1.08506975E-01 -1.46451658E-01
  1.12868858E+00  1.00000000E+00  1.00000000E+00
P(S=P) Contraction coefficients            R   N=          38
  0.00000000E+00  0.00000000E+00  0.00000000E+00  0.00000000E+00  0.00000000E+00
  0.00000000E+00  0.00000000E+00  0.00000000E+00  0.00000000E+00  0.00000000E+00
  0.00000000E+00  0.00000000E+00  0.00000000E+00  0.00000000E+00  0.00000000E+00
  0.00000000E+00  0.00000000E+00  0.00000000E+00  0.00000000E+00  0.00000000E+00
  0.00000000E+00  0.00000000E+00  6.89990666E-02  3.16423961E-01  7.44308291E-01
  1.00000000E+00  0.00000000E+00  0.00000000E+00  0.00000000E+00  0.00000000E+00
  0.00000000E+00  0.00000000E+00  0.00000000E+00  7.16287242E-02  3.45912103E-01
  7.22469956E-01  1.00000000E+00  0.00000000E+00
Coordinates of each shell                  R   N=          48
  1.61809510E+00 -1.39510008E+00 -1.44903909E+00  1.61809510E+00 -1.39510008E+00
 -1.44903909E+00  4.93313236E+00  2.33951201E-03  5.40371306E-04  4.93313236E+00
  2.33951201E-03  5.40371306E-04  1.61802923E+00  1.95167014E+00 -4.83121691E-01
  1.61802923E+00  1.95167014E+00 -4.83121691E-01  1.61826771E+00 -5.58375369E-01
  1.93178692E+00  1.61826771E+00 -5.58375369E-01  1.93178692E+00  1.28942668E+00
 -4.85866384E-04 -1.41625480E-04  1.28942668E+00 -4.85866384E-04 -1.41625480E-04
  1.28942668E+00 -4.85866384E-04 -1.41625480E-04  1.28942668E+00 -4.85866384E-04
 -1.41625480E-04 -1.94712050E+00  2.64555282E-04  7.59159830E-05 -1.94712050E+00
  2.64555282E-04  7.59159830E-05 -1.94712050E+00  2.64555282E-04  7.59159830E-05
 -1.94712050E+00  2.64555282E-04  7.59159830E-05
Constraint Structure                       R   N=          18
  1.61809510E+00 -1.39510008E+00 -1.44903909E+00  4.93313236E+00  2.33951201E-03
  5.40371306E-04  1.61802923E+00  1.95167014E+00 -4.83121691E-01  1.61826771E+00
 -5.58375369E-01  1.93178692E+00  1.28942668E+00 -4.85866384E-04 -1.41625480E-04
 -1.94712050E+00  2.64555282E-04  7.59159830E-05
Num ILSW                                   I              100
ILSW                                       I   N=         100
           0           1           0           0           2           0
           0           0           0           0         402          -1
           0           0           0           0           0           0
           0           0           1           0           0           0
           1           0           0           0           0           0
           0           0      100000           0          -1           0
           0           0           0           0           0           0
           0           0           0           1           0           0
           0           0           1           0           0           0
           0           0           4          41           0           0
           0           0           5           0           0           0
           0           0           0           0           0           0
           0           0           0           0           0           0
           0           0           0           0           0           0
           0           0           0           0           0           0
           0           0           0           0           0           0
           0           0           0           0
Num RLSW                                   I               41
RLSW                                       R   N=          41
  8.00000000E-01  7.20000000E-01  1.00000000E+00  8.10000000E-01  2.00000000E-01
  0.00000000E+00  0.00000000E+00  1.00000000E+00  0.00000000E+00  0.00000000E+00
  0.00000000E+00  0.00000000E+00  1.00000000E+00  0.00000000E+00  0.00000000E+00
  0.00000000E+00  0.00000000E+00  1.00000000E+00  0.00000000E+00  0.00000000E+00
  0.00000000E+00  0.00000000E+00  1.00000000E+00  0.00000000E+00  0.00000000E+00
  0.00000000E+00  0.00000000E+00  1.00000000E+00  0.00000000E+00  0.00000000E+00
  0.00000000E+00  0.00000000E+00  1.00000000E+00  0.00000000E+00  0.00000000E+00
  0.00000000E+00  0.00000000E+00  0.00000000E+00  1.00000000E+00  1.00000000E+00
  0.00000000E+00
MxBond                                     I                3
NBond                                      I   N=           6
           1           0           1           1           3           0
IBond                                      I   N=          18
           5           0           0           0           0           0
           5           0           0           5           0           0
           1           3           4           0           0           0
RBond                                      R   N=          18
  1.00000000E+00  0.00000000E+00  0.00000000E+00  0.00000000E+00  0.00000000E+00
  0.00000000E+00  1.00000000E+00  0.00000000E+00  0.00000000E+00  1.00000000E+00
  0.00000000E+00  0.00000000E+00  1.00000000E+00  1.00000000E+00  1.00000000E+00
  0.00000000E+00  0.00000000E+00  0.00000000E+00
Virial Ratio                               R      2.005905430579963E+00
SCF Energy                                 R     -1.402237274858690E+02
Total Energy                               R     -1.402237274858690E+02
RMS Density                                R      7.310655925446640E-09
External E-field                           R   N=          35
  0.00000000E+00  0.00000000E+00  0.00000000E+00  0.00000000E+00  0.00000000E+00
  0.00000000E+00  0.00000000E+00  0.00000000E+00  0.00000000E+00  0.00000000E+00
  0.00000000E+00  0.00000000E+00  0.00000000E+00  0.00000000E+00  0.00000000E+00
  0.00000000E+00  0.00000000E+00  0.00000000E+00  0.00000000E+00  0.00000000E+00
  0.00000000E+00  0.00000000E+00  0.00000000E+00  0.00000000E+00  0.00000000E+00
  0.00000000E+00  0.00000000E+00  0.00000000E+00  0.00000000E+00  0.00000000E+00
  0.00000000E+00  0.00000000E+00  0.00000000E+00  0.00000000E+00  0.00000000E+00
IOpCl                                      I                0
IROHF                                      I                0
Alpha Orbital Energies                     R   N=          38
 -2.43330309E+01 -1.00069838E+01 -8.02292091E-01 -4.52077482E-01 -2.08048074E-01
 -2.08026278E-01 -1.27114647E-01 -5.27967868E-02 -5.27909894E-02  7.66587837E-02
  2.93358081E-01  3.34771552E-01  3.81126159E-01  3.81160169E-01  7.69647357E-01
  7.69702494E-01  8.61269313E-01  1.05739534E+00  1.09369615E+00  1.11033925E+00
  1.11040678E+00  1.29369889E+00  1.44464842E+00  1.48824240E+00  1.48827175E+00
  1.82614951E+00  1.82616795E+00  1.95162930E+00  2.03832863E+00  2.16333186E+00
  2.16333933E+00  2.36631333E+00  2.36638748E+00  2.46221407E+00  2.46234275E+00
  3.02422580E+00  4.07605915E+00  4.44077479E+00
Alpha MO coefficients                      R   N=        1444
  9.07457566E-05 -3.65466301E-06 -5.14410925E-06 -9.21727837E-05  9.06956104E-05
 -3.67441553E-06  9.07262732E-05 -3.61411825E-06  3.75431513E-05 -1.84285586E-04
 -9.34652794E-05  1.98338181E-09 -7.25712857E-10 -8.36789601E-04  5.59949714E-04
 -3.18380314E-08 -5.02519219E-08  4.12621081E-04  8.88379431E-05  8.88370714E-05
 -4.70354412E-08 -2.32973804E-08 -4.17921835E-09  9.93028196E-01  1.95110478E-02
  2.24745100E-04 -1.39352263E-07 -2.96958636E-08  1.51667685E-02  2.52606977E-04
 -4.40563413E-08 -1.21051403E-08 -8.00726471E-03 -8.01785137E-03 -8.01785268E-03
 -4.97257430E-09  5.81844473E-11  6.46218628E-10 -2.23760126E-04  2.74094552E-03
  2.42128903E-04  3.26183976E-04 -2.23314482E-04  2.73988717E-03 -2.23510934E-04
  2.74104607E-03  9.93005708E-01  4.85473939E-02  5.85826243E-06 -8.66374133E-07
 -1.06499017E-07 -1.38948346E-02  6.10949893E-06  7.08336781E-07 -4.12963827E-07
 -9.38173065E-03 -8.82526273E-03 -8.82524133E-03 -2.58344081E-08  2.98058034E-08
  2.00724560E-08 -1.75097554E-04 -8.18473711E-04 -4.37240981E-06  4.22342861E-08
 -1.07734586E-08  3.32856582E-03  5.62748581E-04 -3.23990761E-07  1.80637189E-09
 -8.80529289E-04 -5.60209600E-04 -5.60179307E-04  3.26405682E-08  4.17690464E-08
  1.04547802E-08  1.31992725E-02  4.73482518E-03  7.88360065E-04  1.69012142E-03
  1.32046824E-02  4.73840203E-03  1.32019907E-02  4.73535667E-03 -3.30834405E-02
  6.11150402E-02 -4.09089212E-02  8.27217721E-06  3.45952117E-06  4.47542822E-02
 -1.84939558E-02 -6.16140406E-07  3.90212975E-07  4.14440431E-03 -2.43368530E-03
 -2.43471188E-03 -2.03228996E-06 -4.08196596E-07 -2.87927685E-07 -2.32405924E-01
  4.94585494E-01  3.12336565E-02 -1.07882826E-05 -2.70509537E-06  5.45933050E-01
  1.65057133E-02 -6.79137424E-06 -1.87850260E-06  1.19819574E-02  3.32007756E-04
  3.31996689E-04 -4.51547965E-06 -1.12926176E-06  1.97949396E-07  1.48886835E-01
  5.46093821E-02  2.32623633E-02  1.35699385E-02  1.48828697E-01  5.45745590E-02
  1.48886318E-01  5.45980386E-02 -1.95705196E-01  3.98951498E-01  4.02585162E-02
 -6.77404643E-05  1.68569732E-05  3.35076505E-01  1.43814355E-02 -3.18726910E-05
  8.47397578E-07 -2.16916646E-02  6.93549677E-03  6.93068498E-03 -3.55970601E-06
  2.96334191E-06 -7.24263574E-07  4.86286073E-02 -9.50770920E-02  8.99035120E-02
 -2.28203553E-05 -4.69258000E-06 -1.71983228E-01  5.34435991E-02 -1.07436726E-05
 -2.29601402E-06  1.38223907E-02  3.67255108E-03  3.67221096E-03 -2.26633273E-06
 -5.76051029E-07 -2.04666190E-07 -2.00987768E-01 -1.73269468E-01  6.00502786E-05
  5.20845626E-05  2.52583963E-01  2.17662125E-01 -5.16136917E-02 -4.44769349E-02
 -2.38984011E-05  4.84666259E-05 -4.14429292E-05  4.42669690E-01  3.83385536E-02
  9.07248167E-05 -3.99105550E-06  1.75894418E-01  1.52110375E-02  4.00911731E-06
  1.30067302E-02 -1.30147712E-02  5.73628222E-03  4.96294935E-04 -1.59219264E-02
  1.97343229E-05 -3.09402881E-05  1.84970678E-04  1.34822263E-01  1.16686931E-02
 -9.65387445E-05  1.24434556E-04  9.26315537E-02  8.01868872E-03  1.40115078E-05
  3.16269745E-04 -3.09178096E-04  5.90725007E-03  5.11173024E-04 -3.84923827E-04
 -1.75647848E-01 -1.51444535E-01  1.33082272E-05  1.12800014E-05 -8.62271346E-02
 -7.43074357E-02  2.61870170E-01  2.25725577E-01  7.10811454E-06 -1.51113076E-05
  4.36469210E-05 -3.83538522E-02  4.42671388E-01 -2.47491290E-05  1.80543689E-05
 -1.52616178E-02  1.75874736E-01 -1.21938182E-07 -1.37899495E-02  1.37898283E-02
 -4.97670103E-04  5.73772070E-03 -1.50422272E-02 -4.72486771E-06  6.30158243E-06
 -2.85952882E-05 -1.16896340E-02  1.34827035E-01  2.45495799E-05 -1.84196786E-05
 -8.03025121E-03  9.26383551E-02 -2.66419247E-06 -3.34475661E-04  3.30024982E-04
 -5.12209163E-04  5.90689273E-03 -3.64495750E-04 -4.84916661E-02 -5.79212405E-02
 -5.71665942E-02 -8.47164064E-02 -4.85562471E-02 -5.79803208E-02 -4.84870814E-02
 -5.79083155E-02  2.55447719E-03 -1.53645573E-02 -3.02626151E-01 -6.79049306E-05
  3.55177546E-05  7.49395643E-02 -1.84190367E-01 -4.29220311E-05  2.25872837E-05
  1.60812290E-02 -7.70590786E-03 -7.69720456E-03 -6.05231781E-07 -2.41855694E-06
  2.10377238E-06  3.16686817E-02 -1.95690582E-02  5.19377708E-01 -2.38331651E-04
 -2.15870212E-05 -2.15403319E-01  3.59840421E-01 -1.71849581E-04 -1.52178944E-05
  3.66175832E-02  2.14646454E-02  2.14648339E-02 -9.40916632E-06 -1.48874479E-06
  1.60322965E-08  9.66429509E-02  1.19777352E-01 -3.88820050E-05 -1.04237630E-04
 -2.87648100E-02 -3.56147676E-02 -6.78691821E-02 -8.40938493E-02  2.96611297E-06
 -1.55082394E-06 -3.03515505E-05 -6.47115943E-02 -1.08771320E-01 -3.40255365E-05
  1.17752719E-05  1.55640981E-02  2.61739331E-02 -5.29248621E-06  1.05734523E-03
 -1.05107171E-03 -8.31460913E-03 -1.39753008E-02  6.28753622E-03 -2.01973695E-06
  1.05661891E-07  1.34226248E-04  3.23742430E-01  5.44135713E-01  1.72763250E-05
  1.06300003E-04  2.49912542E-01  4.20042873E-01  3.52833151E-07  4.57299504E-05
 -5.45510106E-05  2.95204067E-03  4.96158431E-03  3.00186964E-04  2.25693377E-02
  2.79641846E-02 -4.28978778E-05 -1.11834602E-04 -9.49749253E-02 -1.17580308E-01
  7.24069553E-02  8.96998745E-02  7.48838423E-06 -3.81701659E-06 -3.78134066E-05
 -1.08800147E-01  6.47353245E-02 -8.01171771E-05 -4.98605791E-06  2.60872659E-02
 -1.55292391E-02 -1.92891175E-06 -5.43499085E-03  5.44045869E-03 -1.39767388E-02
  8.31579005E-03  1.21269296E-03 -1.71889116E-06  2.97416715E-06  1.63826560E-04
  5.44138843E-01 -3.23740004E-01  1.06517196E-05  1.29403129E-04  4.20050320E-01
 -2.49911325E-01  3.16449477E-06 -2.67936671E-04  2.63412251E-04  4.96148539E-03
 -2.95181069E-03  5.94501370E-05 -5.21215833E-02 -1.09030510E-02  2.66770796E-01
  6.92111981E-01 -5.22882124E-02 -1.12016083E-02 -5.21897304E-02 -1.09951577E-02
  5.00431903E-02 -1.01068350E-01  1.19210609E-01 -1.52279297E-04 -5.49617760E-05
 -2.28273585E-01  1.25924333E-01 -6.64706535E-05 -4.95763494E-05  3.52169444E-02
 -8.74523267E-03 -8.72762261E-03  4.25755706E-06  3.77948235E-07  1.19956402E-05
 -1.70978341E-02  3.36668399E-02  2.50812865E-01  2.49042967E-05  7.98396370E-06
  1.06777915E-01  2.30780151E-01  7.62104839E-06  4.67933498E-06  2.08503023E-03
 -2.16997163E-03 -2.16898258E-03 -5.05975009E-06 -1.10446659E-06  5.89871854E-07
 -1.50689762E-02 -6.13417571E-01 -7.82999663E-02 -4.83799289E-01 -1.51040206E-02
 -6.13608531E-01 -1.50514749E-02 -6.13379107E-01 -5.90789707E-02  3.85935302E-02
  4.97244153E-01  7.30577136E-05 -4.24724591E-05  1.21157981E+00  7.27235101E-01
  1.67298744E-04 -3.95092909E-05 -1.79131502E-03 -1.39873860E-02 -1.39849549E-02
 -2.75014934E-05 -2.97251074E-06 -2.86477644E-06 -4.02638753E-02  9.39313552E-02
  2.41173524E-01 -1.00971343E-04 -1.89285714E-05  2.39729663E-01  2.68924700E-01
 -9.33004440E-05 -1.92017624E-05  1.53230415E-03  4.79068562E-04  4.80342263E-04
  3.98753872E-06 -6.57504550E-08 -5.79989377E-08 -4.88696220E-02 -9.84570350E-01
  1.06976913E-01  3.26052271E-01 -4.88723796E-02 -9.82044404E-01 -4.88288041E-02
 -9.82867653E-01 -1.50425319E-01  2.17403901E-01 -2.89159089E-01 -3.95491307E-04
 -1.89096404E-04  2.07646797E+00 -1.41870375E-01 -1.03465841E-03 -4.88155369E-04
 -2.39686653E-02 -9.06668989E-03 -9.05958105E-03  1.61580090E-05  3.18012377E-06
 -1.54282904E-06  3.15382555E-02 -3.33747603E-02 -2.28491972E-01  1.42098154E-04
  4.12471422E-05 -2.75137390E-01 -2.67694638E-01  1.73690931E-04  5.48439498E-05
  2.49977749E-02  1.24513308E-02  1.24510982E-02 -6.35301116E-06 -2.10341490E-06
 -3.05337412E-06  6.54486697E-02  1.84893893E+00  9.08846870E-05  4.04569445E-04
 -2.03059506E-02 -5.73740107E-01 -4.52501104E-02 -1.27754529E+00 -1.10544875E-04
  1.59825024E-04 -2.70785208E-04  2.14874350E-01  3.50533663E-01  1.67185563E-03
 -7.79177104E-05  7.47984602E-01  1.22007955E+00 -1.46550894E-05  2.03636670E-03
 -2.05679615E-03  1.14014500E-03  1.85782587E-03  1.31480754E-02  2.74240200E-05
 -2.83817338E-05 -1.98349731E-04 -1.87357041E-02 -3.05950442E-02 -2.54388751E-04
 -2.44375076E-04 -4.15237005E-02 -6.77605734E-02  2.42298862E-05  8.62124754E-04
 -8.43453501E-04 -2.62706083E-04 -4.26378894E-04  5.47818015E-03 -1.43322789E-02
 -4.06260714E-01 -4.48812135E-05 -2.84178060E-04  6.39526432E-02  1.80549923E+00
 -4.94931613E-02 -1.39863864E+00  5.74710394E-05 -1.18235211E-04  2.48498711E-04
 -3.50495047E-01  2.14843118E-01 -4.50203188E-04  2.94018604E-04 -1.22037176E+00
  7.47968929E-01  2.90268483E-06  1.14050224E-02 -1.13949886E-02 -1.85611186E-03
  1.13656250E-03 -2.36526074E-03 -2.38087361E-05  3.58008995E-05  1.66203995E-04
  3.05188326E-02 -1.87262216E-02  2.05339791E-04  2.03418950E-04  6.76953102E-02
 -4.15083417E-02 -1.45031300E-05  4.74182566E-03 -4.74919937E-03  4.31709281E-04
 -2.63323336E-04 -9.84493167E-04  2.83523423E-01  3.23340347E-01  4.71547343E-05
 -5.46450775E-05  1.62693371E-01  1.85722418E-01 -4.46108566E-01 -5.09380307E-01
 -1.99841961E-06  1.10476491E-05  1.98589425E-05  9.38004020E-02 -7.40417469E-01
  1.83597199E-04  7.54131365E-05 -2.19591138E-01  1.73283757E+00 -2.88477556E-06
  7.03242109E-02 -7.03049083E-02  2.28542233E-03 -1.80451384E-02  7.08041547E-02
 -1.73978663E-07  2.56426544E-05  4.26057409E-06  1.78609728E-02 -1.41254392E-01
 -4.34710730E-05 -5.15300062E-06  1.35823994E-02 -1.07145907E-01  8.77549213E-06
  6.59438719E-03 -6.57245835E-03 -5.39389294E-04  4.34713962E-03  6.62279563E-03
  3.51602336E-01  4.01649393E-01  1.13218182E-04 -1.42704787E-04 -4.21091010E-01
 -4.81326014E-01  6.98232773E-02  7.99224910E-02  9.09943626E-06 -9.48642454E-05
  3.83773094E-04 -7.40524323E-01 -9.37399495E-02 -2.14855411E-05 -7.03312454E-04
  1.73344799E+00  2.19363716E-01 -4.07225614E-05 -6.13091743E-02  6.13267149E-02
 -1.80387001E-02 -2.28415553E-03  8.12088020E-02  2.36438290E-05  3.58662499E-05
  6.07184088E-05 -1.41234964E-01 -1.79122023E-02 -4.73564584E-04 -2.63129146E-04
 -1.07167613E-01 -1.35573395E-02 -3.49265980E-05 -5.68966041E-03  5.80165827E-03
  4.33704076E-03  5.60349540E-04  7.60193467E-03 -1.15568643E-02  1.60068179E-01
  9.87893585E-02 -6.92007105E-01 -1.17609215E-02  1.60326521E-01 -1.16514511E-02
  1.60205025E-01  1.87672711E-02  1.62100996E-01 -1.00051189E+00 -3.83952727E-04
 -4.03198171E-05 -5.61368977E-01  1.63645079E+00  5.40321659E-04  5.31408756E-05
  3.89016157E-02  2.28059520E-03  2.29858744E-03 -6.73376315E-05 -1.70398285E-05
  1.51002943E-05 -2.80292329E-02  1.88229801E-01 -1.22380386E-01 -1.33429772E-04
 -2.57928773E-05  3.06928098E-01  3.89613803E-01 -1.09708458E-04 -2.79740804E-05
  1.82882059E-01  2.23144262E-02  2.23132149E-02 -2.59972363E-05 -8.22286350E-06
 -7.11710743E-07 -6.88374078E-01  5.41495793E-01 -1.65566721E-01 -1.67709247E-01
 -6.87716516E-01  5.40237885E-01 -6.87042193E-01  5.38666994E-01 -7.91504408E-02
  3.67931938E-01  7.69787403E-02 -4.28482848E-04 -8.44209951E-04 -4.97920667E-01
  2.15888728E-01  5.13755769E-04  1.39451688E-03  1.51626865E-01 -7.70016902E-02
 -7.67861164E-02  1.02331286E-05  2.03974223E-05 -1.19526872E-04 -1.08176199E-02
 -5.06158702E-01 -8.50567304E-02  1.87596995E-05  2.07440085E-05  9.27168033E-01
  3.43541600E-02 -6.32338456E-05 -7.52041702E-05 -1.77913315E-01 -2.26667465E-01
 -2.26673140E-01 -3.79544445E-05 -2.94498850E-05  1.50236543E-05 -1.00574328E-01
 -4.21053751E-01  1.03325394E+00 -1.22643371E+00 -1.01344802E-01 -4.18885812E-01
 -1.01055132E-01 -4.19922359E-01 -3.92146513E-02 -1.06162221E+00 -3.37578469E-02
  5.39950323E-04  2.19425100E-04  2.45245686E+00  3.65507139E-01 -9.01203862E-04
 -2.51324103E-04 -5.61004060E-02 -8.76411273E-02 -8.75915798E-02 -1.27160863E-05
 -2.35866469E-05  4.97066028E-05 -9.43374634E-03 -4.14280065E-01  3.98019127E-02
 -4.10215162E-05 -3.99637044E-05  6.39817135E-01 -1.56853784E-01  9.33537355E-05
  4.44167335E-05 -2.42082524E-01 -1.67812317E-01 -1.67816870E-01  3.98786904E-05
  2.01624721E-05 -8.86574390E-06 -8.10993802E-01  1.53385359E+00  5.88745183E-04
 -2.46553529E-04  2.05225936E-01 -3.87564208E-01  6.07589025E-01 -1.14853191E+00
  5.27405235E-05 -8.75423239E-04 -8.75385897E-05 -4.09167015E-01 -7.72025155E-01
  1.75309418E-03 -1.19197929E-04  5.90816787E-01  1.11479718E+00 -1.88304755E-04
 -3.99187504E-02  3.99794926E-02  3.54780549E-02  6.69531211E-02 -1.88214825E-01
  8.83817486E-06  3.56168451E-04  1.24112815E-04  3.63710274E-02  6.85778555E-02
 -7.63985930E-04 -1.58269361E-04 -4.84249931E-02 -9.13518876E-02  4.87350950E-05
  2.67696113E-03 -2.32286166E-03 -1.95948522E-02 -3.69678156E-02  1.17709556E-02
  2.32540199E-01 -4.39092220E-01 -2.44852991E-04  3.16918174E-04 -8.18906083E-01
  1.54869699E+00  5.86905092E-01 -1.10922113E+00  3.32779605E-05  4.25536675E-04
 -6.63873749E-05  7.71970156E-01 -4.09176766E-01 -1.06405546E-03 -3.47499331E-05
 -1.11465494E+00  5.90830466E-01 -5.98182543E-06 -1.62965953E-01  1.63074243E-01
 -6.69538436E-02  3.54949399E-02  4.61352509E-02  8.32726073E-06  2.76030085E-04
 -3.88594223E-05 -6.86525288E-02  3.63631921E-02 -4.10454712E-04  1.15991201E-04
  9.13512808E-02 -4.84105114E-02  1.77474407E-04  1.02840846E-02 -1.00658044E-02
  3.69645081E-02 -1.95905376E-02 -2.87782701E-03  1.09732498E-01 -8.81577462E-01
 -7.61953139E-01  4.22705793E-01  1.09594782E-01 -8.81450394E-01  1.09732437E-01
 -8.81863328E-01 -1.11291371E-02 -1.26153796E+00 -3.22122885E-01 -8.80348212E-06
 -8.66454025E-05  2.88515855E+00  5.48480004E-01 -8.29564494E-05  2.42440044E-04
 -5.02082731E-02 -5.79930278E-02 -5.79107212E-02 -6.08275342E-05 -3.53559656E-05
  5.13436879E-05 -3.87715393E-02 -9.00040406E-01  2.38714661E-01 -4.46433765E-05
 -7.98135955E-05  1.65518723E+00 -3.12167648E-01  7.13381295E-05  6.77845322E-05
 -4.40979971E-01 -3.96375152E-01 -3.96360251E-01  1.96737130E-05  1.40855937E-05
  1.00599668E-05 -1.35887450E-01 -6.27709647E-01 -2.94738143E-01  2.07595228E-01
 -1.36192902E-01 -6.27724133E-01 -1.35954752E-01 -6.27920493E-01 -4.97131757E-02
 -1.25817026E+00  1.45276240E-01 -5.35508989E-05 -2.16018104E-05  2.91100934E+00
 -2.70265135E-01  3.79848906E-04  1.41813109E-04 -7.31887617E-02 -4.90959151E-02
 -4.86996094E-02  3.81743753E-04 -7.17657321E-05  1.68954759E-04  7.76221705E-02
  1.02564465E+00 -6.38715204E-01  1.16386237E-03 -1.56006300E-04 -2.41163402E+00
  4.11061320E-01 -1.19028339E-03  1.79550226E-04  3.85832198E-01  5.36071458E-01
  5.36116644E-01 -4.72054351E-05  3.05867140E-05  2.00744027E-05 -3.57780524E-02
 -8.88250810E-03 -3.84577550E-04  4.69315217E-04  1.15962210E-01  2.53630636E-02
 -8.06475238E-02 -1.90458904E-02 -5.45293286E-05 -1.49021677E-03  2.85167056E-04
  2.31116273E-02 -1.15212767E-02  3.50741980E-03 -4.25400813E-04 -2.95505435E-01
  1.47226942E-01 -1.04351547E-04  1.36966792E-01 -1.37049405E-01 -2.26518024E-01
  1.12854247E-01 -4.30214652E-02  7.46003205E-05  8.50891474E-04 -1.00912782E-03
 -7.98837446E-01  3.98019948E-01 -2.16741448E-03  7.93300903E-04  8.99639318E-01
 -4.48242422E-01  2.78745685E-04  1.09307839E-02 -9.97120302E-03  3.01648520E-02
 -1.50307813E-02 -3.28322206E-03 -1.13520409E-01 -2.60619848E-02 -8.76284497E-05
  2.92347541E-04  2.59339474E-02  5.68236026E-03  8.75648508E-02  1.97525856E-02
 -9.14830206E-06 -3.00801470E-04  1.55146473E-04  1.15433278E-02  2.31805358E-02
  7.13735340E-04 -3.35541031E-04 -1.47347318E-01 -2.95720328E-01 -1.06163026E-04
 -3.72040905E-02  3.72665368E-02 -1.12859286E-01 -2.26500714E-01 -1.58152188E-01
  2.25178003E-05  3.08383289E-04 -4.05287198E-04 -3.98020143E-01 -7.98856534E-01
 -7.51444199E-04  3.58679693E-04  4.48260166E-01  8.99688193E-01  9.39264973E-05
 -2.68503970E-03  3.01037686E-03  1.50063703E-02  3.01213052E-02 -1.21005356E-02
  7.14468057E-03 -1.48775430E-02 -3.62659432E-05 -6.00419375E-05 -1.64256699E-02
  3.18301112E-02  8.50337842E-03 -1.75765979E-02 -8.33708051E-05 -4.88490752E-04
 -1.78025368E-04  4.26392648E-02 -1.27838730E-02  1.84641139E-03 -3.76189276E-04
 -6.20925521E-02  1.86176178E-02 -1.59380316E-04 -1.72753876E-01  1.72869163E-01
  7.06549108E-01 -2.11855464E-01  9.30302402E-02  5.42698919E-05  1.25302538E-03
  6.63937855E-04 -2.70078384E-01  8.09932008E-02 -2.57036279E-03 -1.06906331E-03
  3.73284154E-01 -1.11942873E-01  3.87050691E-04 -1.90931957E-02  2.00643816E-02
 -4.87979424E-01  1.46337608E-01  1.06057706E-02  1.43885989E-02 -2.86540762E-02
 -4.56445058E-06 -9.52963953E-05 -8.56766617E-04  1.51092436E-03 -1.37126111E-02
  2.69605951E-02 -1.80670848E-05 -1.75080887E-04 -4.97472846E-05  1.27965765E-02
  4.26667387E-02  5.13592775E-04 -1.94699422E-05 -1.86250788E-02 -6.21062436E-02
  1.25643216E-04  8.05360931E-02 -8.06651732E-02  2.11897902E-01  7.06584409E-01
  1.99488547E-01  1.33000109E-05  2.48457802E-04  1.08216789E-04 -8.09676724E-02
 -2.70029547E-01 -5.23544949E-04 -1.89863745E-04  1.11910092E-01  3.73221997E-01
  3.15590321E-05  9.32018840E-03 -9.06360956E-03 -1.46314392E-01 -4.87957236E-01
  2.28914426E-02  3.71872203E-01  3.24770433E-01  8.28505215E-02 -1.33080605E-01
  3.71779257E-01  3.24746027E-01  3.71897057E-01  3.24933140E-01  9.77069446E-02
  7.37159554E-01  4.27499987E-02 -6.13749687E-06 -3.18198029E-05 -2.45572053E+00
  6.39414850E-01  6.98468909E-05 -1.80757733E-04  3.01330262E-01 -1.29879351E-01
 -1.29614364E-01  6.97158074E-04 -1.13543013E-04  6.81176717E-05 -6.83939887E-02