 Default is to use a total of   8 processors:
                                8 via shared-memory
                                1 via Linda
 Entering Link 1 = d:\study\G16W\l1.exe PID=     62008.
  
 Copyright (c) 1988-2017, Gaussian, Inc.  All Rights Reserved.
  
 This is part of the Gaussian(R) 16 program.  It is based on
 the Gaussian(R) 09 system (copyright 2009, Gaussian, Inc.),
 the Gaussian(R) 03 system (copyright 2003, Gaussian, Inc.),
 the Gaussian(R) 98 system (copyright 1998, Gaussian, Inc.),
 the Gaussian(R) 94 system (copyright 1995, Gaussian, Inc.),
 the Gaussian 92(TM) system (copyright 1992, Gaussian, Inc.),
 the Gaussian 90(TM) system (copyright 1990, Gaussian, Inc.),
 the Gaussian 88(TM) system (copyright 1988, Gaussian, Inc.),
 the Gaussian 86(TM) system (copyright 1986, Carnegie Mellon
 University), and the Gaussian 82(TM) system (copyright 1983,
 Carnegie Mellon University). Gaussian is a federally registered
 trademark of Gaussian, Inc.
  
 This software contains proprietary and confidential information,
 including trade secrets, belonging to Gaussian, Inc.
  
 This software is provided under written license and may be
 used, copied, transmitted, or stored only in accord with that
 written license.
  
 The following legend is applicable only to US Government
 contracts under FAR:
  
                    RESTRICTED RIGHTS LEGEND
  
 Use, reproduction and disclosure by the US Government is
 subject to restrictions as set forth in subparagraphs (a)
 and (c) of the Commercial Computer Software - Restricted
 Rights clause in FAR 52.227-19.
  
 Gaussian, Inc.
 340 Quinnipiac St., Bldg. 40, Wallingford CT 06492
  
  
 ---------------------------------------------------------------
 Warning -- This program may not be used in any manner that
 competes with the business of Gaussian, Inc. or will provide
 assistance to any competitor of Gaussian, Inc.  The licensee
 of this program is prohibited from giving any competitor of
 Gaussian, Inc. access to this program.  By using this program,
 the user acknowledges that Gaussian, Inc. is engaged in the
 business of creating and licensing software in the field of
 computational chemistry and represents and warrants to the
 licensee that it is not a competitor of Gaussian, Inc. and that
 it will not use this program in any manner prohibited above.
 ---------------------------------------------------------------
  

 Cite this work as:
 Gaussian 16, Revision B.01,
 M. J. Frisch, G. W. Trucks, H. B. Schlegel, G. E. Scuseria, 
 M. A. Robb, J. R. Cheeseman, G. Scalmani, V. Barone, 
 G. A. Petersson, H. Nakatsuji, X. Li, M. Caricato, A. V. Marenich, 
 J. Bloino, B. G. Janesko, R. Gomperts, B. Mennucci, H. P. Hratchian, 
 J. V. Ortiz, A. F. Izmaylov, J. L. Sonnenberg, D. Williams-Young, 
 F. Ding, F. Lipparini, F. Egidi, J. Goings, B. Peng, A. Petrone, 
 T. Henderson, D. Ranasinghe, V. G. Zakrzewski, J. Gao, N. Rega, 
 G. Zheng, W. Liang, M. Hada, M. Ehara, K. Toyota, R. Fukuda, 
 J. Hasegawa, M. Ishida, T. Nakajima, Y. Honda, O. Kitao, H. Nakai, 
 T. Vreven, K. Throssell, J. A. Montgomery, Jr., J. E. Peralta, 
 F. Ogliaro, M. J. Bearpark, J. J. Heyd, E. N. Brothers, K. N. Kudin, 
 V. N. Staroverov, T. A. Keith, R. Kobayashi, J. Normand, 
 K. Raghavachari, A. P. Rendell, J. C. Burant, S. S. Iyengar, 
 J. Tomasi, M. Cossi, J. M. Millam, M. Klene, C. Adamo, R. Cammi, 
 J. W. Ochterski, R. L. Martin, K. Morokuma, O. Farkas, 
 J. B. Foresman, and D. J. Fox, Gaussian, Inc., Wallingford CT, 2016.
 
 ******************************************
 Gaussian 16:  EM64W-G16RevB.01 16-Dec-2017
                19-Jul-2021 
 ******************************************
 ------------------------------------
 #P b3lyp/6-31g(d) nosymm guess=cards
 ------------------------------------
 1/38=1,172=1/1;
 2/12=2,15=1,17=6,18=5,40=1/2;
 3/5=1,6=6,7=1,11=2,25=1,30=1,74=-5/1,2,3;
 4/14=1/1;
 5/5=2,38=5/2;
 6/7=2,8=2,9=2,10=2,28=1/1;
 99/5=1,9=1/99;
 Leave Link    1 at Mon Jul 19 05:07:04 2021, MaxMem=           0 cpu:               0.0 elap:               0.1
 (Enter d:\study\G16W\l101.exe)
 -----------------------------------------
 Please check this file to ensure validity
 -----------------------------------------
 Symbolic Z-matrix:
 Charge =  0 Multiplicity = 1
 N                     0.        0.        0.731 
 H                     0.        0.95142   1.09979 
 H                     0.82396  -0.47571   1.09979 
 H                    -0.82396  -0.47571   1.09979 
 B                     0.        0.       -0.93825 
 H                    -1.01546   0.58628  -1.24171 
 H                     0.       -1.17255  -1.24171 
 H                     1.01546   0.58628  -1.24171 
 
 ITRead=  0  0  0  0  0  0  0  0
 MicOpt= -1 -1 -1 -1 -1 -1 -1 -1
 NAtoms=      8 NQM=        8 NQMF=       0 NMMI=      0 NMMIF=      0
                NMic=       0 NMicF=      0.
                    Isotopes and Nuclear Properties:
 (Nuclear quadrupole moments (NQMom) in fm**2, nuclear magnetic moments (NMagM)
  in nuclear magnetons)

  Atom         1           2           3           4           5           6           7           8
 IAtWgt=          14           1           1           1          11           1           1           1
 AtmWgt=  14.0030740   1.0078250   1.0078250   1.0078250  11.0093053   1.0078250   1.0078250   1.0078250
 NucSpn=           2           1           1           1           3           1           1           1
 AtZEff=   0.0000000   0.0000000   0.0000000   0.0000000   0.0000000   0.0000000   0.0000000   0.0000000
 NQMom=    2.0440000   0.0000000   0.0000000   0.0000000   4.0590000   0.0000000   0.0000000   0.0000000
 NMagM=    0.4037610   2.7928460   2.7928460   2.7928460   2.6886370   2.7928460   2.7928460   2.7928460
 AtZNuc=   7.0000000   1.0000000   1.0000000   1.0000000   5.0000000   1.0000000   1.0000000   1.0000000
 Leave Link  101 at Mon Jul 19 05:07:04 2021, MaxMem=  2684354560 cpu:               0.0 elap:               0.1
 (Enter d:\study\G16W\l202.exe)
                          Input orientation:                          
 ---------------------------------------------------------------------
 Center     Atomic      Atomic             Coordinates (Angstroms)
 Number     Number       Type             X           Y           Z
 ---------------------------------------------------------------------
      1          7           0        0.000000    0.000000    0.731002
      2          1           0        0.000000    0.951422    1.099792
      3          1           0        0.823955   -0.475711    1.099792
      4          1           0       -0.823955   -0.475711    1.099792
      5          5           0        0.000000    0.000000   -0.938254
      6          1           0       -1.015461    0.586277   -1.241708
      7          1           0        0.000000   -1.172553   -1.241708
      8          1           0        1.015461    0.586277   -1.241708
 ---------------------------------------------------------------------
                    Distance matrix (angstroms):
                    1          2          3          4          5
     1  N    0.000000
     2  H    1.020397   0.000000
     3  H    1.020396   1.647911   0.000000
     4  H    1.020396   1.647911   1.647910   0.000000
     5  B    1.669256   2.249185   2.249185   2.249185   0.000000
     6  H    2.294878   2.578200   3.161312   2.578200   1.211184
     7  H    2.294878   3.161312   2.578200   2.578200   1.211183
     8  H    2.294878   2.578200   2.578200   3.161312   1.211184
                    6          7          8
     6  H    0.000000
     7  H    2.030922   0.000000
     8  H    2.030922   2.030922   0.000000
 Symmetry turned off by external request.
 Stoichiometry    BH6N
 Framework group  C3V[C3(BN),3SGV(H2)]
 Deg. of freedom     5
 Full point group                 C3V     NOp   6
 Rotational constants (GHZ):          73.3094330          17.4682487          17.4682475
 Leave Link  202 at Mon Jul 19 05:07:04 2021, MaxMem=  2684354560 cpu:               0.0 elap:               0.0
 (Enter d:\study\G16W\l301.exe)
 Standard basis: 6-31G(d) (6D, 7F)
 Ernie: Thresh=  0.10000D-02 Tol=  0.10000D-05 Strict=F.
    42 basis functions,    80 primitive gaussians,    42 cartesian basis functions
     9 alpha electrons        9 beta electrons
       nuclear repulsion energy        40.3899581895 Hartrees.
 IExCor=  402 DFT=T Ex+Corr=B3LYP ExCW=0 ScaHFX=  0.200000
 ScaDFX=  0.800000  0.720000  1.000000  0.810000 ScalE2=  1.000000  1.000000
 IRadAn=      5 IRanWt=     -1 IRanGd=            0 ICorTp=0 IEmpDi=  4
 NAtoms=    8 NActive=    8 NUniq=    8 SFac= 1.00D+00 NAtFMM=   60 NAOKFM=F Big=F
 Integral buffers will be    131072 words long.
 Raffenetti 2 integral format.
 Two-electron integral symmetry is turned off.
 Leave Link  301 at Mon Jul 19 05:07:04 2021, MaxMem=  2684354560 cpu:               0.0 elap:               0.0
 (Enter d:\study\G16W\l302.exe)
 NPDir=0 NMtPBC=     1 NCelOv=     1 NCel=       1 NClECP=     1 NCelD=      1
         NCelK=      1 NCelE2=     1 NClLst=     1 CellRange=     0.0.
 One-electron integrals computed using PRISM.
 NBasis=    42 RedAO= T EigKep=  8.81D-03  NBF=    42
 NBsUse=    42 1.00D-06 EigRej= -1.00D+00 NBFU=    42
 Precomputing XC quadrature grid using
 IXCGrd= 4 IRadAn=           5 IRanWt=          -1 IRanGd=           0 AccXCQ= 0.00D+00.
 Generated NRdTot=       0 NPtTot=           0 NUsed=           0 NTot=          32
 NSgBfM=    42    42    42    42    42 MxSgAt=     8 MxSgA2=     8.
 Leave Link  302 at Mon Jul 19 05:07:04 2021, MaxMem=  2684354560 cpu:               0.0 elap:               0.1
 (Enter d:\study\G16W\l303.exe)
 DipDrv:  MaxL=1.
 Leave Link  303 at Mon Jul 19 05:07:04 2021, MaxMem=  2684354560 cpu:               0.0 elap:               0.1
 (Enter d:\study\G16W\l401.exe)
 ExpMin= 1.27D-01 ExpMax= 4.17D+03 ExpMxC= 6.27D+02 IAcc=3 IRadAn=         5 AccDes= 0.00D+00
 Harris functional with IExCor=  402 and IRadAn=       5 diagonalized for initial guess.
 HarFok:  IExCor=  402 AccDes= 0.00D+00 IRadAn=         5 IDoV= 1 UseB2=F ITyADJ=14
 ICtDFT=  3500011 ScaDFX=  1.000000  1.000000  1.000000  1.000000
 FoFCou: FMM=F IPFlag=           0 FMFlag=      100000 FMFlg1=           0
         NFxFlg=           0 DoJE=T BraDBF=F KetDBF=T FulRan=T
         wScrn=  0.000000 ICntrl=       500 IOpCl=  0 I1Cent=   200000004 NGrid=           0
         NMat0=    1 NMatS0=      1 NMatT0=    0 NMatD0=    1 NMtDS0=    0 NMtDT0=    0
 Symmetry not used in FoFCou.
 Harris En= -83.2716384697102    
 Replacement alpha orbitals read in format (5E16.9).
 Complete set of vectors read in:
 Replacement for vector     1:
  0.99271000D+00 0.34630000D-01 0.00000000D+00 0.00000000D+00 0.12700000D-02
  0.38300000D-02 0.00000000D+00 0.00000000D+00-0.36000000D-03-0.81800000D-02
 -0.81800000D-02-0.82200000D-02 0.00000000D+00 0.00000000D+00 0.00000000D+00
  0.24000000D-03-0.37000000D-03 0.24000000D-03-0.37000000D-03 0.24000000D-03
 -0.37000000D-03 0.00000000D+00 0.00000000D+00 0.00000000D+00 0.00000000D+00
  0.00000000D+00 0.00000000D+00 0.00000000D+00 0.00000000D+00 0.00000000D+00
  0.00000000D+00 0.00000000D+00 0.00000000D+00 0.00000000D+00 0.00000000D+00
  0.00000000D+00 0.00000000D+00 0.00000000D+00 0.00000000D+00 0.00000000D+00
  0.00000000D+00 0.00000000D+00
 Replacement for vector     2:
 -0.19950000D+00 0.41679000D+00 0.00000000D+00 0.00000000D+00 0.10926000D+00
  0.42847000D+00 0.00000000D+00 0.00000000D+00 0.55110000D-01 0.78500000D-02
  0.78500000D-02-0.75200000D-02 0.00000000D+00 0.00000000D+00 0.00000000D+00
  0.13932000D+00 0.12770000D-01 0.13932000D+00 0.12770000D-01 0.13932000D+00
  0.12770000D-01 0.00000000D+00 0.00000000D+00 0.00000000D+00 0.00000000D+00
  0.00000000D+00 0.00000000D+00 0.00000000D+00 0.00000000D+00 0.00000000D+00
  0.00000000D+00 0.00000000D+00 0.00000000D+00 0.00000000D+00 0.00000000D+00
  0.00000000D+00 0.00000000D+00 0.00000000D+00 0.00000000D+00 0.00000000D+00
  0.00000000D+00 0.00000000D+00
 Replacement for vector     3:
  0.00000000D+00 0.00000000D+00 0.00000000D+00 0.48101000D+00 0.00000000D+00
  0.00000000D+00 0.00000000D+00 0.24720000D+00 0.00000000D+00-0.14090000D-01
  0.14090000D-01 0.00000000D+00 0.00000000D+00 0.00000000D+00 0.33300000D-01
  0.28032000D+00 0.19203000D+00-0.14016000D+00-0.96020000D-01-0.14016000D+00
 -0.96020000D-01 0.00000000D+00 0.00000000D+00 0.00000000D+00 0.00000000D+00
  0.00000000D+00 0.00000000D+00 0.00000000D+00 0.00000000D+00 0.00000000D+00
  0.00000000D+00 0.00000000D+00 0.00000000D+00 0.00000000D+00 0.00000000D+00
  0.00000000D+00 0.00000000D+00 0.00000000D+00 0.00000000D+00 0.00000000D+00
  0.00000000D+00 0.00000000D+00
 Replacement for vector     4:
  0.00000000D+00 0.00000000D+00 0.48101000D+00 0.00000000D+00 0.00000000D+00
  0.00000000D+00 0.24720000D+00 0.00000000D+00 0.00000000D+00 0.00000000D+00
  0.00000000D+00 0.00000000D+00-0.16270000D-01 0.33300000D-01 0.00000000D+00
  0.00000000D+00 0.00000000D+00 0.24277000D+00 0.16630000D+00-0.24277000D+00
 -0.16630000D+00 0.00000000D+00 0.00000000D+00 0.00000000D+00 0.00000000D+00
  0.00000000D+00 0.00000000D+00 0.00000000D+00 0.00000000D+00 0.00000000D+00
  0.00000000D+00 0.00000000D+00 0.00000000D+00 0.00000000D+00 0.00000000D+00
  0.00000000D+00 0.00000000D+00 0.00000000D+00 0.00000000D+00 0.00000000D+00
  0.00000000D+00 0.00000000D+00
 Replacement for vector     5:
  0.71450000D-01-0.15497000D+00 0.00000000D+00 0.00000000D+00 0.55870000D+00
 -0.32034000D+00 0.00000000D+00 0.00000000D+00 0.47547000D+00-0.81000000D-02
 -0.81000000D-02 0.39740000D-01 0.00000000D+00 0.00000000D+00 0.00000000D+00
  0.61960000D-01 0.62830000D-01 0.61960000D-01 0.62830000D-01 0.61960000D-01
  0.62830000D-01 0.00000000D+00 0.00000000D+00 0.00000000D+00 0.00000000D+00
  0.00000000D+00 0.00000000D+00 0.00000000D+00 0.00000000D+00 0.00000000D+00
  0.00000000D+00 0.00000000D+00 0.00000000D+00 0.00000000D+00 0.00000000D+00
  0.00000000D+00 0.00000000D+00 0.00000000D+00 0.00000000D+00 0.00000000D+00
  0.00000000D+00 0.00000000D+00
 Replacement for vector     6:
  0.00000000D+00 0.00000000D+00 0.00000000D+00 0.00000000D+00 0.00000000D+00
  0.00000000D+00 0.00000000D+00 0.00000000D+00 0.00000000D+00 0.00000000D+00
  0.00000000D+00 0.00000000D+00 0.00000000D+00 0.00000000D+00 0.00000000D+00
  0.00000000D+00 0.00000000D+00 0.00000000D+00 0.00000000D+00 0.00000000D+00
  0.00000000D+00 0.99276000D+00 0.54460000D-01 0.00000000D+00 0.00000000D+00
  0.90000000D-03-0.17780000D-01 0.00000000D+00 0.00000000D+00 0.77000000D-03
 -0.94000000D-02-0.94000000D-02-0.98700000D-02 0.00000000D+00 0.00000000D+00
  0.00000000D+00-0.72000000D-03 0.32800000D-02-0.72000000D-03 0.32800000D-02
 -0.72000000D-03 0.32800000D-02
 Replacement for vector     7:
  0.00000000D+00 0.00000000D+00 0.00000000D+00 0.00000000D+00 0.00000000D+00
  0.00000000D+00 0.00000000D+00 0.00000000D+00 0.00000000D+00 0.00000000D+00
  0.00000000D+00 0.00000000D+00 0.00000000D+00 0.00000000D+00 0.00000000D+00
  0.00000000D+00 0.00000000D+00 0.00000000D+00 0.00000000D+00 0.00000000D+00
  0.00000000D+00-0.19606000D+00 0.32415000D+00 0.00000000D+00 0.00000000D+00
 -0.51100000D-01 0.29288000D+00 0.00000000D+00 0.00000000D+00 0.11500000D-02
  0.18440000D-01 0.18440000D-01-0.94000000D-02 0.00000000D+00 0.00000000D+00
  0.00000000D+00 0.16001000D+00 0.10620000D+00 0.16001000D+00 0.10620000D+00
  0.16001000D+00 0.10620000D+00
 Replacement for vector     8:
  0.00000000D+00 0.00000000D+00 0.00000000D+00 0.00000000D+00 0.00000000D+00
  0.00000000D+00 0.00000000D+00 0.00000000D+00 0.00000000D+00 0.00000000D+00
  0.00000000D+00 0.00000000D+00 0.00000000D+00 0.00000000D+00 0.00000000D+00
  0.00000000D+00 0.00000000D+00 0.00000000D+00 0.00000000D+00 0.00000000D+00
  0.00000000D+00 0.00000000D+00 0.00000000D+00 0.00000000D+00 0.41326000D+00
  0.00000000D+00 0.00000000D+00 0.00000000D+00 0.14799000D+00 0.00000000D+00
  0.24570000D-01-0.24570000D-01 0.00000000D+00 0.00000000D+00 0.00000000D+00
 -0.11490000D-01 0.13860000D+00 0.14276000D+00-0.27720000D+00-0.28552000D+00
  0.13860000D+00 0.14276000D+00
 Replacement for vector     9:
  0.00000000D+00 0.00000000D+00 0.00000000D+00 0.00000000D+00 0.00000000D+00
  0.00000000D+00 0.00000000D+00 0.00000000D+00 0.00000000D+00 0.00000000D+00
  0.00000000D+00 0.00000000D+00 0.00000000D+00 0.00000000D+00 0.00000000D+00
  0.00000000D+00 0.00000000D+00 0.00000000D+00 0.00000000D+00 0.00000000D+00
  0.00000000D+00 0.00000000D+00 0.00000000D+00 0.41326000D+00 0.00000000D+00
  0.00000000D+00 0.00000000D+00 0.14799000D+00 0.00000000D+00 0.00000000D+00
  0.00000000D+00 0.00000000D+00 0.00000000D+00 0.28370000D-01-0.11490000D-01
  0.00000000D+00-0.24006000D+00-0.24727000D+00 0.00000000D+00 0.00000000D+00
  0.24006000D+00 0.24727000D+00
 Replacement for vector    10:
 -0.12924000D+00 0.17405000D+00 0.00000000D+00 0.00000000D+00 0.18854000D+00
  0.18143900D+01 0.00000000D+00 0.00000000D+00 0.44495000D+00-0.33230000D-01
 -0.33230000D-01-0.30470000D-01 0.00000000D+00 0.00000000D+00 0.00000000D+00
 -0.59980000D-01-0.91876000D+00-0.59980000D-01-0.91876000D+00-0.59980000D-01
 -0.91876000D+00 0.00000000D+00 0.00000000D+00 0.00000000D+00 0.00000000D+00
  0.00000000D+00 0.00000000D+00 0.00000000D+00 0.00000000D+00 0.00000000D+00
  0.00000000D+00 0.00000000D+00 0.00000000D+00 0.00000000D+00 0.00000000D+00
  0.00000000D+00 0.00000000D+00 0.00000000D+00 0.00000000D+00 0.00000000D+00
  0.00000000D+00 0.00000000D+00
 Replacement for vector    11:
  0.00000000D+00 0.00000000D+00 0.00000000D+00-0.41710000D+00 0.00000000D+00
  0.00000000D+00 0.00000000D+00-0.10190500D+01 0.00000000D+00-0.61300000D-02
  0.61300000D-02 0.00000000D+00 0.00000000D+00 0.00000000D+00-0.15510000D-01
  0.10294000D+00 0.16334800D+01-0.51470000D-01-0.81674000D+00-0.51470000D-01
 -0.81674000D+00 0.00000000D+00 0.00000000D+00 0.00000000D+00 0.00000000D+00
  0.00000000D+00 0.00000000D+00 0.00000000D+00 0.00000000D+00 0.00000000D+00
  0.00000000D+00 0.00000000D+00 0.00000000D+00 0.00000000D+00 0.00000000D+00
  0.00000000D+00 0.00000000D+00 0.00000000D+00 0.00000000D+00 0.00000000D+00
  0.00000000D+00 0.00000000D+00
 Replacement for vector    12:
  0.00000000D+00 0.00000000D+00-0.41710000D+00 0.00000000D+00 0.00000000D+00
  0.00000000D+00-0.10190500D+01 0.00000000D+00 0.00000000D+00 0.00000000D+00
  0.00000000D+00 0.00000000D+00-0.70800000D-02-0.15510000D-01 0.00000000D+00
  0.00000000D+00 0.00000000D+00 0.89150000D-01 0.14146400D+01-0.89150000D-01
 -0.14146400D+01 0.00000000D+00 0.00000000D+00 0.00000000D+00 0.00000000D+00
  0.00000000D+00 0.00000000D+00 0.00000000D+00 0.00000000D+00 0.00000000D+00
  0.00000000D+00 0.00000000D+00 0.00000000D+00 0.00000000D+00 0.00000000D+00
  0.00000000D+00 0.00000000D+00 0.00000000D+00 0.00000000D+00 0.00000000D+00
  0.00000000D+00 0.00000000D+00
 Replacement for vector    13:
  0.00000000D+00 0.00000000D+00-0.35956000D+00 0.00000000D+00 0.00000000D+00
  0.00000000D+00 0.11750400D+01 0.00000000D+00 0.00000000D+00 0.00000000D+00
  0.00000000D+00 0.00000000D+00 0.14898000D+00-0.84340000D-01 0.00000000D+00
  0.00000000D+00 0.00000000D+00-0.67184000D+00 0.77800000D-01 0.67184000D+00
 -0.77800000D-01 0.00000000D+00 0.00000000D+00 0.00000000D+00 0.00000000D+00
  0.00000000D+00 0.00000000D+00 0.00000000D+00 0.00000000D+00 0.00000000D+00
  0.00000000D+00 0.00000000D+00 0.00000000D+00 0.00000000D+00 0.00000000D+00
  0.00000000D+00 0.00000000D+00 0.00000000D+00 0.00000000D+00 0.00000000D+00
  0.00000000D+00 0.00000000D+00
 Replacement for vector    14:
  0.00000000D+00 0.00000000D+00 0.00000000D+00-0.35956000D+00 0.00000000D+00
  0.00000000D+00 0.00000000D+00 0.11750400D+01 0.00000000D+00 0.12902000D+00
 -0.12903000D+00 0.00000000D+00 0.00000000D+00 0.00000000D+00-0.84340000D-01
 -0.77578000D+00 0.89840000D-01 0.38789000D+00-0.44920000D-01 0.38789000D+00
 -0.44920000D-01 0.00000000D+00 0.00000000D+00 0.00000000D+00 0.00000000D+00
  0.00000000D+00 0.00000000D+00 0.00000000D+00 0.00000000D+00 0.00000000D+00
  0.00000000D+00 0.00000000D+00 0.00000000D+00 0.00000000D+00 0.00000000D+00
  0.00000000D+00 0.00000000D+00 0.00000000D+00 0.00000000D+00 0.00000000D+00
  0.00000000D+00 0.00000000D+00
 Replacement for vector    15:
 -0.18430000D-01 0.15773000D+00 0.00000000D+00 0.00000000D+00-0.98436000D+00
  0.60960000D-01 0.00000000D+00 0.00000000D+00 0.11106100D+01 0.41130000D-01
  0.41120000D-01 0.44330000D-01 0.00000000D+00 0.00000000D+00 0.00000000D+00
 -0.43020000D-01-0.12929000D+00-0.43010000D-01-0.12929000D+00-0.43010000D-01
 -0.12929000D+00 0.00000000D+00 0.00000000D+00 0.00000000D+00 0.00000000D+00
  0.00000000D+00 0.00000000D+00 0.00000000D+00 0.00000000D+00 0.00000000D+00
  0.00000000D+00 0.00000000D+00 0.00000000D+00 0.00000000D+00 0.00000000D+00
  0.00000000D+00 0.00000000D+00 0.00000000D+00 0.00000000D+00 0.00000000D+00
  0.00000000D+00 0.00000000D+00
 Replacement for vector    16:
  0.69140000D-01-0.60593000D+00 0.00000000D+00-0.20000000D-04-0.21707000D+00
  0.79886000D+00 0.00000000D+00 0.30000000D-04-0.51310000D-01 0.20570000D-01
  0.20580000D-01-0.23757000D+00 0.00000000D+00 0.00000000D+00 0.00000000D+00
  0.71918000D+00-0.53871000D+00 0.71916000D+00-0.53866000D+00 0.71916000D+00
 -0.53866000D+00 0.00000000D+00 0.00000000D+00 0.00000000D+00 0.00000000D+00
  0.00000000D+00 0.00000000D+00 0.00000000D+00 0.00000000D+00 0.00000000D+00
  0.00000000D+00 0.00000000D+00 0.00000000D+00 0.00000000D+00 0.00000000D+00
  0.00000000D+00 0.00000000D+00 0.00000000D+00 0.00000000D+00 0.00000000D+00
  0.00000000D+00 0.00000000D+00
 Replacement for vector    17:
  0.00000000D+00-0.10000000D-04 0.00000000D+00 0.99079000D+00 0.00000000D+00
  0.20000000D-04 0.00000000D+00-0.14148300D+01 0.00000000D+00 0.89980000D-01
 -0.89980000D-01-0.10000000D-04 0.00000000D+00 0.00000000D+00-0.66010000D-01
 -0.55237000D+00 0.14690600D+01 0.27621000D+00-0.73455000D+00 0.27621000D+00
 -0.73454000D+00 0.00000000D+00 0.00000000D+00 0.00000000D+00 0.00000000D+00
  0.00000000D+00 0.00000000D+00 0.00000000D+00 0.00000000D+00 0.00000000D+00
  0.00000000D+00 0.00000000D+00 0.00000000D+00 0.00000000D+00 0.00000000D+00
  0.00000000D+00 0.00000000D+00 0.00000000D+00 0.00000000D+00 0.00000000D+00
  0.00000000D+00 0.00000000D+00
 Replacement for vector    18:
  0.00000000D+00 0.00000000D+00-0.99079000D+00 0.00000000D+00 0.00000000D+00
  0.00000000D+00 0.14148300D+01 0.00000000D+00 0.00000000D+00 0.00000000D+00
  0.00000000D+00 0.00000000D+00-0.10390000D+00 0.66010000D-01 0.00000000D+00
  0.00000000D+00 0.00000000D+00 0.47838000D+00-0.12722500D+01-0.47838000D+00
  0.12722500D+01 0.00000000D+00 0.00000000D+00 0.00000000D+00 0.00000000D+00
  0.00000000D+00 0.00000000D+00 0.00000000D+00 0.00000000D+00 0.00000000D+00
  0.00000000D+00 0.00000000D+00 0.00000000D+00 0.00000000D+00 0.00000000D+00
  0.00000000D+00 0.00000000D+00 0.00000000D+00 0.00000000D+00 0.00000000D+00
  0.00000000D+00 0.00000000D+00
 Replacement for vector    19:
 -0.81230000D-01-0.15820400D+01 0.00000000D+00 0.00000000D+00-0.14900000D+00
  0.41155200D+01 0.00000000D+00 0.00000000D+00 0.76200000D+00-0.39540000D+00
 -0.39540000D+00-0.75740000D-01 0.00000000D+00 0.00000000D+00 0.00000000D+00
 -0.29037000D+00-0.81684000D+00-0.29037000D+00-0.81684000D+00-0.29037000D+00
 -0.81684000D+00 0.00000000D+00 0.00000000D+00 0.00000000D+00 0.00000000D+00
  0.00000000D+00 0.00000000D+00 0.00000000D+00 0.00000000D+00 0.00000000D+00
  0.00000000D+00 0.00000000D+00 0.00000000D+00 0.00000000D+00 0.00000000D+00
  0.00000000D+00 0.00000000D+00 0.00000000D+00 0.00000000D+00 0.00000000D+00
  0.00000000D+00 0.00000000D+00
 Replacement for vector    20:
  0.00000000D+00 0.00000000D+00 0.00000000D+00-0.18410000D-01 0.00000000D+00
  0.00000000D+00 0.00000000D+00-0.45340000D-01 0.00000000D+00 0.54094000D+00
 -0.54094000D+00 0.00000000D+00 0.00000000D+00 0.00000000D+00 0.78007000D+00
  0.38340000D-01 0.45500000D-02-0.19170000D-01-0.22800000D-02-0.19170000D-01
 -0.22800000D-02 0.00000000D+00 0.00000000D+00 0.00000000D+00 0.00000000D+00
  0.00000000D+00 0.00000000D+00 0.00000000D+00 0.00000000D+00 0.00000000D+00
  0.00000000D+00 0.00000000D+00 0.00000000D+00 0.00000000D+00 0.00000000D+00
  0.00000000D+00 0.00000000D+00 0.00000000D+00 0.00000000D+00 0.00000000D+00
  0.00000000D+00 0.00000000D+00
 Replacement for vector    21:
  0.00000000D+00 0.00000000D+00-0.18410000D-01 0.00000000D+00 0.00000000D+00
  0.00000000D+00-0.45340000D-01 0.00000000D+00 0.00000000D+00 0.00000000D+00
  0.00000000D+00 0.00000000D+00 0.62462000D+00 0.78007000D+00 0.00000000D+00
  0.00000000D+00 0.00000000D+00 0.33200000D-01 0.39400000D-02-0.33200000D-01
 -0.39400000D-02 0.00000000D+00 0.00000000D+00 0.00000000D+00 0.00000000D+00
  0.00000000D+00 0.00000000D+00 0.00000000D+00 0.00000000D+00 0.00000000D+00
  0.00000000D+00 0.00000000D+00 0.00000000D+00 0.00000000D+00 0.00000000D+00
  0.00000000D+00 0.00000000D+00 0.00000000D+00 0.00000000D+00 0.00000000D+00
  0.00000000D+00 0.00000000D+00
 Replacement for vector    22:
 -0.52600000D-01-0.45799000D+00 0.00000000D+00 0.00000000D+00 0.20860000D-01
  0.14984500D+01 0.00000000D+00 0.00000000D+00 0.42437000D+00 0.45067000D+00
  0.45068000D+00-0.10704200D+01 0.00000000D+00 0.00000000D+00 0.00000000D+00
 -0.46707000D+00-0.19683000D+00-0.46707000D+00-0.19683000D+00-0.46707000D+00
 -0.19683000D+00 0.00000000D+00 0.00000000D+00 0.00000000D+00 0.00000000D+00
  0.00000000D+00 0.00000000D+00 0.00000000D+00 0.00000000D+00 0.00000000D+00
  0.00000000D+00 0.00000000D+00 0.00000000D+00 0.00000000D+00 0.00000000D+00
  0.00000000D+00 0.00000000D+00 0.00000000D+00 0.00000000D+00 0.00000000D+00
  0.00000000D+00 0.00000000D+00
 Replacement for vector    23:
  0.00000000D+00 0.00000000D+00 0.00000000D+00-0.62610000D-01 0.00000000D+00
  0.00000000D+00 0.00000000D+00-0.67792000D+00 0.00000000D+00 0.81235000D+00
 -0.81235000D+00 0.00000000D+00 0.00000000D+00 0.00000000D+00-0.74898000D+00
  0.91353000D+00-0.18720000D-01-0.45677000D+00 0.93600000D-02-0.45677000D+00
  0.93600000D-02 0.00000000D+00 0.00000000D+00 0.00000000D+00 0.00000000D+00
  0.00000000D+00 0.00000000D+00 0.00000000D+00 0.00000000D+00 0.00000000D+00
  0.00000000D+00 0.00000000D+00 0.00000000D+00 0.00000000D+00 0.00000000D+00
  0.00000000D+00 0.00000000D+00 0.00000000D+00 0.00000000D+00 0.00000000D+00
  0.00000000D+00 0.00000000D+00
 Replacement for vector    24:
  0.00000000D+00 0.00000000D+00-0.62610000D-01 0.00000000D+00 0.00000000D+00
  0.00000000D+00-0.67792000D+00 0.00000000D+00 0.00000000D+00 0.00000000D+00
  0.00000000D+00 0.00000000D+00 0.93802000D+00-0.74898000D+00 0.00000000D+00
  0.00000000D+00 0.00000000D+00 0.79114000D+00-0.16210000D-01-0.79114000D+00
  0.16210000D-01 0.00000000D+00 0.00000000D+00 0.00000000D+00 0.00000000D+00
  0.00000000D+00 0.00000000D+00 0.00000000D+00 0.00000000D+00 0.00000000D+00
  0.00000000D+00 0.00000000D+00 0.00000000D+00 0.00000000D+00 0.00000000D+00
  0.00000000D+00 0.00000000D+00 0.00000000D+00 0.00000000D+00 0.00000000D+00
  0.00000000D+00 0.00000000D+00
 Replacement for vector    25:
 -0.46624000D+00 0.11641800D+01 0.00000000D+00 0.00000000D+00-0.93010000D-01
  0.31889000D+01 0.00000000D+00 0.00000000D+00 0.30604000D+00-0.15024900D+01
 -0.15024900D+01-0.15251600D+01 0.00000000D+00 0.00000000D+00 0.00000000D+00
  0.14177000D+00-0.56457000D+00 0.14177000D+00-0.56457000D+00 0.14177000D+00
 -0.56457000D+00 0.00000000D+00 0.00000000D+00 0.00000000D+00 0.00000000D+00
  0.00000000D+00 0.00000000D+00 0.00000000D+00 0.00000000D+00 0.00000000D+00
  0.00000000D+00 0.00000000D+00 0.00000000D+00 0.00000000D+00 0.00000000D+00
  0.00000000D+00 0.00000000D+00 0.00000000D+00 0.00000000D+00 0.00000000D+00
  0.00000000D+00 0.00000000D+00
 Replacement for vector    26:
  0.00000000D+00 0.00000000D+00 0.00000000D+00 0.00000000D+00 0.00000000D+00
  0.00000000D+00 0.00000000D+00 0.00000000D+00 0.00000000D+00 0.00000000D+00
  0.00000000D+00 0.00000000D+00 0.00000000D+00 0.00000000D+00 0.00000000D+00
  0.00000000D+00 0.00000000D+00 0.00000000D+00 0.00000000D+00 0.00000000D+00
  0.00000000D+00-0.55960000D-01 0.71600000D-01 0.00000000D+00 0.00000000D+00
  0.47200000D+00 0.32774000D+00 0.00000000D+00 0.00000000D+00 0.55561000D+00
 -0.15500000D-02-0.15500000D-02 0.32300000D-02 0.00000000D+00 0.00000000D+00
  0.00000000D+00-0.51980000D-01-0.79200000D-01-0.51980000D-01-0.79200000D-01
 -0.51980000D-01-0.79200000D-01
 Replacement for vector    27:
  0.00000000D+00 0.00000000D+00 0.00000000D+00 0.00000000D+00 0.00000000D+00
  0.00000000D+00 0.00000000D+00 0.00000000D+00 0.00000000D+00 0.00000000D+00
  0.00000000D+00 0.00000000D+00 0.00000000D+00 0.00000000D+00 0.00000000D+00
  0.00000000D+00 0.00000000D+00 0.00000000D+00 0.00000000D+00 0.00000000D+00
  0.00000000D+00 0.00000000D+00 0.00000000D+00 0.32857000D+00 0.00000000D+00
  0.00000000D+00 0.00000000D+00 0.16928500D+01 0.00000000D+00 0.00000000D+00
  0.00000000D+00 0.00000000D+00 0.00000000D+00-0.29740000D-01 0.12630000D-01
  0.00000000D+00 0.11000000D+00 0.15310200D+01 0.00000000D+00 0.00000000D+00
 -0.11000000D+00-0.15310200D+01
 Replacement for vector    28:
  0.00000000D+00 0.00000000D+00 0.00000000D+00 0.00000000D+00 0.00000000D+00
  0.00000000D+00 0.00000000D+00 0.00000000D+00 0.00000000D+00 0.00000000D+00
  0.00000000D+00 0.00000000D+00 0.00000000D+00 0.00000000D+00 0.00000000D+00
  0.00000000D+00 0.00000000D+00 0.00000000D+00 0.00000000D+00 0.00000000D+00
  0.00000000D+00 0.00000000D+00 0.00000000D+00 0.00000000D+00 0.32857000D+00
  0.00000000D+00 0.10000000D-04 0.00000000D+00 0.16928500D+01 0.00000000D+00
 -0.25760000D-01 0.25760000D-01 0.00000000D+00 0.00000000D+00 0.00000000D+00
  0.12630000D-01-0.63510000D-01-0.88394000D+00 0.12701000D+00 0.17678600D+01
 -0.63510000D-01-0.88394000D+00
 Replacement for vector    29:
  0.00000000D+00 0.00000000D+00 0.00000000D+00 0.00000000D+00 0.00000000D+00
  0.00000000D+00 0.00000000D+00 0.00000000D+00 0.00000000D+00 0.00000000D+00
  0.00000000D+00 0.00000000D+00 0.00000000D+00 0.00000000D+00 0.00000000D+00
  0.00000000D+00 0.00000000D+00 0.00000000D+00 0.00000000D+00 0.00000000D+00
  0.00000000D+00-0.16323000D+00 0.26874000D+00 0.00000000D+00 0.00000000D+00
 -0.11692000D+00 0.25846400D+01 0.00000000D+00-0.10000000D-04-0.64185000D+00
  0.18470000D-01 0.18470000D-01 0.29720000D-01 0.00000000D+00 0.00000000D+00
  0.00000000D+00-0.50500000D-01-0.13400100D+01-0.50500000D-01-0.13400300D+01
 -0.50500000D-01-0.13400100D+01
 Replacement for vector    30:
  0.00000000D+00 0.00000000D+00 0.00000000D+00 0.00000000D+00 0.00000000D+00
  0.00000000D+00 0.00000000D+00 0.00000000D+00 0.00000000D+00 0.00000000D+00
  0.00000000D+00 0.00000000D+00 0.00000000D+00 0.00000000D+00 0.00000000D+00
  0.00000000D+00 0.00000000D+00 0.00000000D+00 0.00000000D+00 0.00000000D+00
  0.00000000D+00 0.00000000D+00 0.00000000D+00 0.00000000D+00-0.10247500D+01
  0.00000000D+00 0.00000000D+00 0.00000000D+00 0.12899200D+01 0.00000000D+00
 -0.50450000D-01 0.50450000D-01 0.00000000D+00 0.00000000D+00 0.00000000D+00
  0.23220000D-01-0.10620000D+00-0.19370000D-01 0.21239000D+00 0.38750000D-01
 -0.10620000D+00-0.19370000D-01
 Replacement for vector    31:
  0.00000000D+00 0.00000000D+00 0.00000000D+00 0.00000000D+00 0.00000000D+00
  0.00000000D+00 0.00000000D+00 0.00000000D+00 0.00000000D+00 0.00000000D+00
  0.00000000D+00 0.00000000D+00 0.00000000D+00 0.00000000D+00 0.00000000D+00
  0.00000000D+00 0.00000000D+00 0.00000000D+00 0.00000000D+00 0.00000000D+00
  0.00000000D+00 0.00000000D+00 0.00000000D+00-0.10247600D+01 0.00000000D+00
  0.00000000D+00 0.00000000D+00 0.12899200D+01 0.00000000D+00 0.00000000D+00
  0.00000000D+00 0.00000000D+00 0.00000000D+00-0.58260000D-01 0.23220000D-01
  0.00000000D+00 0.18394000D+00 0.33550000D-01 0.00000000D+00 0.00000000D+00
 -0.18394000D+00-0.33550000D-01
 Replacement for vector    32:
  0.00000000D+00 0.00000000D+00 0.00000000D+00 0.00000000D+00 0.00000000D+00
  0.00000000D+00 0.00000000D+00 0.00000000D+00 0.00000000D+00 0.00000000D+00
  0.00000000D+00 0.00000000D+00 0.00000000D+00 0.00000000D+00 0.00000000D+00
  0.00000000D+00 0.00000000D+00 0.00000000D+00 0.00000000D+00 0.00000000D+00
  0.00000000D+00 0.21470000D-01-0.15640000D-01 0.00000000D+00 0.00000000D+00
 -0.11573600D+01-0.20431000D+00 0.00000000D+00 0.00000000D+00 0.11653600D+01
  0.16840000D-01 0.16840000D-01-0.21320000D-01 0.00000000D+00 0.00000000D+00
  0.00000000D+00 0.68620000D-01 0.55530000D-01 0.68620000D-01 0.55530000D-01
  0.68620000D-01 0.55530000D-01
 Replacement for vector    33:
  0.00000000D+00 0.00000000D+00 0.00000000D+00 0.00000000D+00 0.00000000D+00
  0.00000000D+00 0.00000000D+00 0.00000000D+00 0.00000000D+00 0.00000000D+00
  0.00000000D+00 0.00000000D+00 0.00000000D+00 0.00000000D+00 0.00000000D+00
  0.00000000D+00 0.00000000D+00 0.00000000D+00 0.00000000D+00 0.00000000D+00
  0.00000000D+00-0.53560000D-01-0.15834100D+01 0.00000000D+00 0.00000000D+00
 -0.12705000D+00 0.32394300D+01 0.00000000D+00 0.00000000D+00-0.32408000D+00
 -0.13888000D+00-0.13888000D+00 0.49320000D-01 0.00000000D+00 0.00000000D+00
  0.00000000D+00-0.27954000D+00-0.58849000D+00-0.27954000D+00-0.58849000D+00
 -0.27954000D+00-0.58849000D+00
 Replacement for vector    34:
  0.00000000D+00 0.00000000D+00 0.00000000D+00 0.00000000D+00 0.00000000D+00
  0.00000000D+00 0.00000000D+00 0.00000000D+00 0.00000000D+00 0.00000000D+00
  0.00000000D+00 0.00000000D+00 0.00000000D+00 0.00000000D+00 0.00000000D+00
  0.00000000D+00 0.00000000D+00 0.00000000D+00 0.00000000D+00 0.00000000D+00
  0.00000000D+00 0.00000000D+00 0.00000000D+00-0.63576000D+00 0.00000000D+00
  0.00000000D+00 0.00000000D+00 0.13179700D+01 0.00000000D+00 0.00000000D+00
  0.00000000D+00 0.00000000D+00 0.00000000D+00 0.34083000D+00-0.17584000D+00
  0.00000000D+00-0.75034000D+00 0.15174300D+01 0.00000000D+00 0.00000000D+00
  0.75034000D+00-0.15174300D+01
 Replacement for vector    35:
  0.00000000D+00 0.00000000D+00 0.00000000D+00 0.00000000D+00 0.00000000D+00
  0.00000000D+00 0.00000000D+00 0.00000000D+00 0.00000000D+00 0.00000000D+00
  0.00000000D+00 0.00000000D+00 0.00000000D+00 0.00000000D+00 0.00000000D+00
  0.00000000D+00 0.00000000D+00 0.00000000D+00 0.00000000D+00 0.00000000D+00
  0.00000000D+00 0.00000000D+00 0.00000000D+00 0.00000000D+00-0.63576000D+00
  0.00000000D+00 0.10000000D-04 0.00000000D+00 0.13179700D+01 0.00000000D+00
  0.29517000D+00-0.29517000D+00 0.00000000D+00 0.00000000D+00 0.00000000D+00
 -0.17584000D+00 0.43321000D+00-0.87609000D+00-0.86642000D+00 0.17521700D+01
  0.43321000D+00-0.87609000D+00
 Replacement for vector    36:
  0.00000000D+00 0.00000000D+00 0.00000000D+00 0.00000000D+00 0.00000000D+00
  0.00000000D+00 0.00000000D+00 0.00000000D+00 0.00000000D+00 0.00000000D+00
  0.00000000D+00 0.00000000D+00 0.00000000D+00 0.00000000D+00 0.00000000D+00
  0.00000000D+00 0.00000000D+00 0.00000000D+00 0.00000000D+00 0.00000000D+00
  0.00000000D+00 0.46150000D-01-0.14058700D+01 0.00000000D+00 0.00000000D+00
  0.24546000D+00 0.33879200D+01 0.00000000D+00 0.00000000D+00-0.55966000D+00
  0.10150000D+00 0.10150000D+00-0.23019000D+00 0.00000000D+00 0.00000000D+00
  0.00000000D+00 0.64809000D+00-0.14230800D+01 0.64809000D+00-0.14230900D+01
  0.64809000D+00-0.14230800D+01
 Replacement for vector    37:
  0.00000000D+00 0.00000000D+00 0.00000000D+00 0.00000000D+00 0.00000000D+00
  0.00000000D+00 0.00000000D+00 0.00000000D+00 0.00000000D+00 0.00000000D+00
  0.00000000D+00 0.00000000D+00 0.00000000D+00 0.00000000D+00 0.00000000D+00
  0.00000000D+00 0.00000000D+00 0.00000000D+00 0.00000000D+00 0.00000000D+00
  0.00000000D+00 0.00000000D+00 0.00000000D+00 0.00000000D+00-0.11100000D-02
  0.00000000D+00 0.00000000D+00 0.00000000D+00 0.15710000D-01 0.00000000D+00
  0.41349000D+00-0.41349000D+00 0.00000000D+00 0.00000000D+00 0.00000000D+00
  0.87865000D+00-0.96400000D-02-0.19000000D-03 0.19290000D-01 0.37000000D-03
 -0.96400000D-02-0.19000000D-03
 Replacement for vector    38:
  0.00000000D+00 0.00000000D+00 0.00000000D+00 0.00000000D+00 0.00000000D+00
  0.00000000D+00 0.00000000D+00 0.00000000D+00 0.00000000D+00 0.00000000D+00
  0.00000000D+00 0.00000000D+00 0.00000000D+00 0.00000000D+00 0.00000000D+00
  0.00000000D+00 0.00000000D+00 0.00000000D+00 0.00000000D+00 0.00000000D+00
  0.00000000D+00 0.00000000D+00 0.00000000D+00-0.11100000D-02 0.00000000D+00
  0.00000000D+00 0.00000000D+00 0.15710000D-01 0.00000000D+00 0.00000000D+00
  0.00000000D+00 0.00000000D+00 0.00000000D+00 0.47745000D+00 0.87865000D+00
  0.00000000D+00 0.16700000D-01 0.32000000D-03 0.00000000D+00 0.00000000D+00
 -0.16700000D-01-0.32000000D-03
 Replacement for vector    39:
  0.00000000D+00 0.00000000D+00 0.00000000D+00 0.00000000D+00 0.00000000D+00
  0.00000000D+00 0.00000000D+00 0.00000000D+00 0.00000000D+00 0.00000000D+00
  0.00000000D+00 0.00000000D+00 0.00000000D+00 0.00000000D+00 0.00000000D+00
  0.00000000D+00 0.00000000D+00 0.00000000D+00 0.00000000D+00 0.00000000D+00
  0.00000000D+00 0.61930000D-01 0.10490000D+00 0.00000000D+00 0.00000000D+00
  0.53090000D-01-0.80203000D+00 0.00000000D+00 0.00000000D+00 0.17145000D+00
 -0.49936000D+00-0.49936000D+00 0.10620200D+01 0.00000000D+00 0.00000000D+00
  0.00000000D+00 0.38093000D+00 0.12149000D+00 0.38093000D+00 0.12149000D+00
  0.38093000D+00 0.12149000D+00
 Replacement for vector    40:
  0.00000000D+00 0.00000000D+00 0.00000000D+00 0.00000000D+00 0.00000000D+00
  0.00000000D+00 0.00000000D+00 0.00000000D+00 0.00000000D+00 0.00000000D+00
  0.00000000D+00 0.00000000D+00 0.00000000D+00 0.00000000D+00 0.00000000D+00
  0.00000000D+00 0.00000000D+00 0.00000000D+00 0.00000000D+00 0.00000000D+00
  0.00000000D+00 0.00000000D+00 0.00000000D+00 0.27654000D+00 0.00000000D+00
  0.00000000D+00 0.00000000D+00 0.24799000D+00 0.00000000D+00 0.00000000D+00
  0.00000000D+00 0.00000000D+00 0.00000000D+00 0.96853000D+00-0.52266000D+00
  0.00000000D+00 0.75045000D+00-0.18819000D+00 0.00000000D+00 0.00000000D+00
 -0.75045000D+00 0.18819000D+00
 Replacement for vector    41:
  0.00000000D+00 0.00000000D+00 0.00000000D+00 0.00000000D+00 0.00000000D+00
  0.00000000D+00 0.00000000D+00 0.00000000D+00 0.00000000D+00 0.00000000D+00
  0.00000000D+00 0.00000000D+00 0.00000000D+00 0.00000000D+00 0.00000000D+00
  0.00000000D+00 0.00000000D+00 0.00000000D+00 0.00000000D+00 0.00000000D+00
  0.00000000D+00 0.00000000D+00 0.00000000D+00 0.00000000D+00 0.27654000D+00
  0.00000000D+00 0.00000000D+00 0.00000000D+00 0.24799000D+00 0.00000000D+00
  0.83877000D+00-0.83877000D+00 0.00000000D+00 0.00000000D+00 0.00000000D+00
 -0.52266000D+00-0.43327000D+00 0.10865000D+00 0.86655000D+00-0.21731000D+00
 -0.43327000D+00 0.10865000D+00
 Replacement for vector    42:
  0.00000000D+00 0.00000000D+00 0.00000000D+00 0.00000000D+00 0.00000000D+00
  0.00000000D+00 0.00000000D+00 0.00000000D+00 0.00000000D+00 0.00000000D+00
  0.00000000D+00 0.00000000D+00 0.00000000D+00 0.00000000D+00 0.00000000D+00
  0.00000000D+00 0.00000000D+00 0.00000000D+00 0.00000000D+00 0.00000000D+00
  0.00000000D+00-0.47590000D+00 0.41601000D+01 0.00000000D+00 0.00000000D+00
  0.35740000D-01 0.10977800D+01 0.00000000D+00 0.00000000D+00-0.12897000D+00
 -0.21143900D+01-0.21143900D+01-0.20717400D+01 0.00000000D+00 0.00000000D+00
  0.00000000D+00 0.18725000D+00-0.36748000D+00 0.18725000D+00-0.36748000D+00
  0.18725000D+00-0.36748000D+00
 JPrj=0 DoOrth=T DoCkMO=T.
 Leave Link  401 at Mon Jul 19 05:07:05 2021, MaxMem=  2684354560 cpu:               1.0 elap:               0.3
 (Enter d:\study\G16W\l502.exe)
 Keep R1 ints in memory in canonical form, NReq=7324354.
 FoFCou: FMM=F IPFlag=           0 FMFlag=           0 FMFlg1=           0
         NFxFlg=           0 DoJE=F BraDBF=F KetDBF=F FulRan=T
         wScrn=  0.000000 ICntrl=       600 IOpCl=  0 I1Cent=           0 NGrid=           0
         NMat0=    1 NMatS0=    903 NMatT0=    0 NMatD0=    1 NMtDS0=    0 NMtDT0=    0
 Symmetry not used in FoFCou.
 Two-electron integral symmetry not used.
 Closed shell SCF:
 Using DIIS extrapolation, IDIIS=  1040.
 NGot=  2684354560 LenX=  2683941932 LenY=  2683939727
 Requested convergence on RMS density matrix=1.00D-08 within 128 cycles.
 Requested convergence on MAX density matrix=1.00D-06.
 Requested convergence on             energy=1.00D-06.
 No special actions if energy rises.
 Integral accuracy reduced to 1.0D-05 until final iterations.

 Cycle   1  Pass 0  IDiag  1:
 E= -83.1254612403800    
 DIIS: error= 5.46D-02 at cycle   1 NSaved=   1.
 NSaved= 1 IEnMin= 1 EnMin= -83.1254612403800     IErMin= 1 ErrMin= 5.46D-02
 ErrMax= 5.46D-02  0.00D+00 EMaxC= 1.00D-01 BMatC= 3.52D-02 BMatP= 3.52D-02
 IDIUse=3 WtCom= 4.54D-01 WtEn= 5.46D-01
 Coeff-Com:  0.100D+01
 Coeff-En:   0.100D+01
 Coeff:      0.100D+01
 Gap=     0.362 Goal=   None    Shift=    0.000
 GapD=    0.362 DampG=1.000 DampE=0.500 DampFc=0.5000 IDamp=-1.
 Damping current iteration by 5.00D-01
 RMSDP=1.08D-02 MaxDP=1.10D-01              OVMax= 2.24D-01

 Cycle   2  Pass 0  IDiag  1:
 E= -83.1680807057191     Delta-E=       -0.042619465339 Rises=F Damp=T
 DIIS: error= 2.22D-02 at cycle   2 NSaved=   2.
 NSaved= 2 IEnMin= 2 EnMin= -83.1680807057191     IErMin= 2 ErrMin= 2.22D-02
 ErrMax= 2.22D-02  0.00D+00 EMaxC= 1.00D-01 BMatC= 8.77D-03 BMatP= 3.52D-02
 IDIUse=3 WtCom= 7.78D-01 WtEn= 2.22D-01
 Coeff-Com: -0.693D+00 0.169D+01
 Coeff-En:   0.000D+00 0.100D+01
 Coeff:     -0.539D+00 0.154D+01
 Gap=     0.294 Goal=   None    Shift=    0.000
 RMSDP=5.45D-03 MaxDP=4.82D-02 DE=-4.26D-02 OVMax= 2.65D-02

 Cycle   3  Pass 0  IDiag  1:
 E= -83.2115174900237     Delta-E=       -0.043436784305 Rises=F Damp=F
 DIIS: error= 7.05D-03 at cycle   3 NSaved=   3.
 NSaved= 3 IEnMin= 3 EnMin= -83.2115174900237     IErMin= 3 ErrMin= 7.05D-03
 ErrMax= 7.05D-03  0.00D+00 EMaxC= 1.00D-01 BMatC= 1.91D-03 BMatP= 8.77D-03
 IDIUse=3 WtCom= 9.29D-01 WtEn= 7.05D-02
 Coeff-Com: -0.393D+00 0.764D+00 0.630D+00
 Coeff-En:   0.000D+00 0.000D+00 0.100D+01
 Coeff:     -0.366D+00 0.710D+00 0.656D+00
 Gap=     0.293 Goal=   None    Shift=    0.000
 RMSDP=8.62D-04 MaxDP=1.52D-02 DE=-4.34D-02 OVMax= 1.54D-02

 Cycle   4  Pass 0  IDiag  1:
 E= -83.2130509521382     Delta-E=       -0.001533462114 Rises=F Damp=F
 DIIS: error= 1.78D-03 at cycle   4 NSaved=   4.
 NSaved= 4 IEnMin= 4 EnMin= -83.2130509521382     IErMin= 4 ErrMin= 1.78D-03
 ErrMax= 1.78D-03  0.00D+00 EMaxC= 1.00D-01 BMatC= 1.93D-04 BMatP= 1.91D-03
 IDIUse=3 WtCom= 9.82D-01 WtEn= 1.78D-02
 Coeff-Com: -0.107D+00 0.183D+00 0.297D+00 0.627D+00
 Coeff-En:   0.000D+00 0.000D+00 0.000D+00 0.100D+01
 Coeff:     -0.105D+00 0.179D+00 0.292D+00 0.634D+00
 Gap=     0.295 Goal=   None    Shift=    0.000
 RMSDP=2.55D-04 MaxDP=3.46D-03 DE=-1.53D-03 OVMax= 4.07D-03

 Cycle   5  Pass 0  IDiag  1:
 E= -83.2131995875379     Delta-E=       -0.000148635400 Rises=F Damp=F
 DIIS: error= 3.91D-04 at cycle   5 NSaved=   5.
 NSaved= 5 IEnMin= 5 EnMin= -83.2131995875379     IErMin= 5 ErrMin= 3.91D-04
 ErrMax= 3.91D-04  0.00D+00 EMaxC= 1.00D-01 BMatC= 7.63D-06 BMatP= 1.93D-04
 IDIUse=3 WtCom= 9.96D-01 WtEn= 3.91D-03
 Coeff-Com: -0.214D-01 0.353D-01 0.801D-01 0.257D+00 0.649D+00
 Coeff-En:   0.000D+00 0.000D+00 0.000D+00 0.000D+00 0.100D+01
 Coeff:     -0.213D-01 0.351D-01 0.797D-01 0.256D+00 0.650D+00
 Gap=     0.295 Goal=   None    Shift=    0.000
 RMSDP=7.42D-05 MaxDP=8.31D-04 DE=-1.49D-04 OVMax= 9.95D-04

 Cycle   6  Pass 0  IDiag  1:
 E= -83.2132081723015     Delta-E=       -0.000008584764 Rises=F Damp=F
 DIIS: error= 3.99D-05 at cycle   6 NSaved=   6.
 NSaved= 6 IEnMin= 6 EnMin= -83.2132081723015     IErMin= 6 ErrMin= 3.99D-05
 ErrMax= 3.99D-05  0.00D+00 EMaxC= 1.00D-01 BMatC= 7.39D-08 BMatP= 7.63D-06
 IDIUse=1 WtCom= 1.00D+00 WtEn= 0.00D+00
 Coeff-Com:  0.707D-03-0.148D-02 0.905D-03 0.113D-01 0.111D+00 0.878D+00
 Coeff:      0.707D-03-0.148D-02 0.905D-03 0.113D-01 0.111D+00 0.878D+00
 Gap=     0.295 Goal=   None    Shift=    0.000
 RMSDP=7.25D-06 MaxDP=8.18D-05 DE=-8.58D-06 OVMax= 9.63D-05

 Initial convergence to 1.0D-05 achieved.  Increase integral accuracy.
 Cycle   7  Pass 1  IDiag  1:
 E= -83.2132068822566     Delta-E=        0.000001290045 Rises=F Damp=F
 DIIS: error= 4.76D-06 at cycle   1 NSaved=   1.
 NSaved= 1 IEnMin= 1 EnMin= -83.2132068822566     IErMin= 1 ErrMin= 4.76D-06
 ErrMax= 4.76D-06  0.00D+00 EMaxC= 1.00D-01 BMatC= 1.05D-09 BMatP= 1.05D-09
 IDIUse=1 WtCom= 1.00D+00 WtEn= 0.00D+00
 Coeff-Com:  0.100D+01
 Coeff:      0.100D+01
 Gap=     0.295 Goal=   None    Shift=    0.000
 RMSDP=7.25D-06 MaxDP=8.18D-05 DE= 1.29D-06 OVMax= 2.63D-05

 Cycle   8  Pass 1  IDiag  1:
 E= -83.2132068825800     Delta-E=       -0.000000000323 Rises=F Damp=F
 DIIS: error= 4.51D-06 at cycle   2 NSaved=   2.
 NSaved= 2 IEnMin= 2 EnMin= -83.2132068825800     IErMin= 2 ErrMin= 4.51D-06
 ErrMax= 4.51D-06  0.00D+00 EMaxC= 1.00D-01 BMatC= 1.07D-09 BMatP= 1.05D-09
 IDIUse=1 WtCom= 1.00D+00 WtEn= 0.00D+00
 Coeff-Com:  0.502D+00 0.498D+00
 Coeff:      0.502D+00 0.498D+00
 Gap=     0.295 Goal=   None    Shift=    0.000
 RMSDP=6.32D-07 MaxDP=9.39D-06 DE=-3.23D-10 OVMax= 1.13D-05

 Cycle   9  Pass 1  IDiag  1:
 E= -83.2132068835809     Delta-E=       -0.000000001001 Rises=F Damp=F
 DIIS: error= 1.07D-06 at cycle   3 NSaved=   3.
 NSaved= 3 IEnMin= 3 EnMin= -83.2132068835809     IErMin= 3 ErrMin= 1.07D-06
 ErrMax= 1.07D-06  0.00D+00 EMaxC= 1.00D-01 BMatC= 4.25D-11 BMatP= 1.05D-09
 IDIUse=1 WtCom= 1.00D+00 WtEn= 0.00D+00
 Coeff-Com:  0.146D+00 0.214D+00 0.640D+00
 Coeff:      0.146D+00 0.214D+00 0.640D+00
 Gap=     0.295 Goal=   None    Shift=    0.000
 RMSDP=1.28D-07 MaxDP=1.64D-06 DE=-1.00D-09 OVMax= 1.77D-06

 Cycle  10  Pass 1  IDiag  1:
 E= -83.2132068836124     Delta-E=       -0.000000000031 Rises=F Damp=F
 DIIS: error= 2.17D-07 at cycle   4 NSaved=   4.
 NSaved= 4 IEnMin= 4 EnMin= -83.2132068836124     IErMin= 4 ErrMin= 2.17D-07
 ErrMax= 2.17D-07  0.00D+00 EMaxC= 1.00D-01 BMatC= 1.79D-12 BMatP= 4.25D-11
 IDIUse=1 WtCom= 1.00D+00 WtEn= 0.00D+00
 Coeff-Com:  0.249D-01 0.521D-01 0.225D+00 0.698D+00
 Coeff:      0.249D-01 0.521D-01 0.225D+00 0.698D+00
 Gap=     0.295 Goal=   None    Shift=    0.000
 RMSDP=3.92D-08 MaxDP=4.89D-07 DE=-3.14D-11 OVMax= 5.61D-07

 Cycle  11  Pass 1  IDiag  1:
 E= -83.2132068836152     Delta-E=       -0.000000000003 Rises=F Damp=F
 DIIS: error= 4.74D-08 at cycle   5 NSaved=   5.
 NSaved= 5 IEnMin= 5 EnMin= -83.2132068836152     IErMin= 5 ErrMin= 4.74D-08
 ErrMax= 4.74D-08  0.00D+00 EMaxC= 1.00D-01 BMatC= 1.14D-13 BMatP= 1.79D-12
 IDIUse=1 WtCom= 1.00D+00 WtEn= 0.00D+00
 Coeff-Com: -0.640D-02-0.312D-02-0.551D-03 0.203D+00 0.807D+00
 Coeff:     -0.640D-02-0.312D-02-0.551D-03 0.203D+00 0.807D+00
 Gap=     0.295 Goal=   None    Shift=    0.000
 RMSDP=9.18D-09 MaxDP=8.96D-08 DE=-2.83D-12 OVMax= 1.04D-07

 SCF Done:  E(RB3LYP) =  -83.2132068836     A.U. after   11 cycles
            NFock= 11  Conv=0.92D-08     -V/T= 2.0105
 KE= 8.234461053508D+01 PE=-2.728205469056D+02 EE= 6.687277129745D+01
 Leave Link  502 at Mon Jul 19 05:07:06 2021, MaxMem=  2684354560 cpu:               1.0 elap:               1.3
 (Enter d:\study\G16W\l601.exe)
 Copying SCF densities to generalized density rwf, IOpCl= 0 IROHF=0.

 **********************************************************************

            Population analysis using the SCF Density.

 **********************************************************************

 Alpha  occ. eigenvalues --  -14.41384  -6.67484  -0.94756  -0.54902  -0.54902
 Alpha  occ. eigenvalues --   -0.50386  -0.34660  -0.26736  -0.26736
 Alpha virt. eigenvalues --    0.02742   0.10442   0.10442   0.18603   0.22183
 Alpha virt. eigenvalues --    0.22183   0.24956   0.46010   0.46010   0.48434
 Alpha virt. eigenvalues --    0.66527   0.66527   0.67353   0.80307   0.83839
 Alpha virt. eigenvalues --    0.83839   0.90161   0.97191   0.97191   1.01090
 Alpha virt. eigenvalues --    1.30852   1.30852   1.44269   1.68997   1.76996
 Alpha virt. eigenvalues --    1.76996   1.90038   1.90038   2.32370   2.32370
 Alpha virt. eigenvalues --    2.38889   3.55014   3.76298
          Condensed to atoms (all electrons):
               1          2          3          4          5          6
     1  N    6.747500   0.310759   0.310759   0.310759   0.181400  -0.027890
     2  H    0.310759   0.380132  -0.020433  -0.020433  -0.014593  -0.001493
     3  H    0.310759  -0.020433   0.380132  -0.020433  -0.014593   0.003307
     4  H    0.310759  -0.020433  -0.020433   0.380132  -0.014593  -0.001493
     5  B    0.181400  -0.014593  -0.014593  -0.014593   3.657891   0.419395
     6  H   -0.027890  -0.001493   0.003307  -0.001493   0.419395   0.735380
     7  H   -0.027890   0.003307  -0.001493  -0.001493   0.419395  -0.020014
     8  H   -0.027890  -0.001493  -0.001493   0.003307   0.419395  -0.020014
               7          8
     1  N   -0.027890  -0.027890
     2  H    0.003307  -0.001493
     3  H   -0.001493  -0.001493
     4  H   -0.001493   0.003307
     5  B    0.419395   0.419395
     6  H   -0.020014  -0.020014
     7  H    0.735379  -0.020014
     8  H   -0.020014   0.735380
 Mulliken charges:
               1
     1  N   -0.777507
     2  H    0.364246
     3  H    0.364246
     4  H    0.364246
     5  B   -0.053699
     6  H   -0.087178
     7  H   -0.087177
     8  H   -0.087178
 Sum of Mulliken charges =   0.00000
 Mulliken charges with hydrogens summed into heavy atoms:
               1
     1  N    0.315231
     5  B   -0.315231
 Electronic spatial extent (au):  <R**2>=            118.1547
 Charge=              0.0000 electrons
 Dipole moment (field-independent basis, Debye):
    X=              0.0000    Y=              0.0000    Z=              5.5996  Tot=              5.5996
 Quadrupole moment (field-independent basis, Debye-Ang):
   XX=            -15.5872   YY=            -15.5872   ZZ=            -16.1378
   XY=              0.0000   XZ=              0.0000   YZ=              0.0000
 Traceless Quadrupole moment (field-independent basis, Debye-Ang):
   XX=              0.1835   YY=              0.1835   ZZ=             -0.3671
   XY=              0.0000   XZ=              0.0000   YZ=              0.0000
 Octapole moment (field-independent basis, Debye-Ang**2):
  XXX=              0.0000  YYY=              1.5790  ZZZ=             18.4775  XYY=              0.0000
  XXY=             -1.5790  XXZ=              8.1304  XZZ=              0.0000  YZZ=              0.0000
  YYZ=              8.1304  XYZ=              0.0000
 Hexadecapole moment (field-independent basis, Debye-Ang**3):
 XXXX=            -34.1503 YYYY=            -34.1503 ZZZZ=           -106.9516 XXXY=              0.0000
 XXXZ=              0.0000 YYYX=              0.0000 YYYZ=              0.7646 ZZZX=              0.0000
 ZZZY=              0.0000 XXYY=            -11.3834 XXZZ=            -23.5248 YYZZ=            -23.5248
 XXYZ=             -0.7646 YYXZ=              0.0000 ZZXY=              0.0000
 N-N= 4.038995818948D+01 E-N=-2.728205492907D+02  KE= 8.234461053508D+01
 No NMR shielding tensors so no spin-rotation constants.
 Leave Link  601 at Mon Jul 19 05:07:06 2021, MaxMem=  2684354560 cpu:               0.0 elap:               0.1
 (Enter d:\study\G16W\l9999.exe)
 1|1|UNPC-GP76|SP|RB3LYP|6-31G(d)|B1H6N1|SOBEREVA|19-Jul-2021|0||#P b3l
 yp/6-31g(d) nosymm guess=cards||Please check this file to ensure valid
 ity||0,1|N,0,0.,0.,0.731002|H,0,0.,0.951422,1.099792|H,0,0.823955,-0.4
 75711,1.099792|H,0,-0.823955,-0.475711,1.099792|B,0,0.,0.,-0.938254|H,
 0,-1.015461,0.586277,-1.241708|H,0,0.,-1.172553,-1.241708|H,0,1.015461
 ,0.586277,-1.241708||Version=EM64W-G16RevB.01|HF=-83.2132069|RMSD=9.17
 9e-009|Dipole=0.,-0.0000005,2.2030572|Quadrupole=0.1364453,0.1364502,-
 0.2728955,0.,0.,0.0000008|PG=C03V [C3(B1N1),3SGV(H2)]||@


 BETTER TO HUNT IN FIELDS, FOR HEALTH UNBOUGHT
 THAN FEE THE DOCTOR FOR A NAUSEOUS DRAUGHT.
 THE WISE, FOR CURE, ON EXERCISE DEPEND;
 GOD NEVER MADE HIS WORK FOR MAN TO MEND.
     -- JOHN DRYDEN (1631-1700)
 Job cpu time:       0 days  0 hours  0 minutes  2.0 seconds.
 Elapsed time:       0 days  0 hours  0 minutes  2.1 seconds.
 File lengths (MBytes):  RWF=      6 Int=      0 D2E=      0 Chk=      1 Scr=      1
 Normal termination of Gaussian 16 at Mon Jul 19 05:07:06 2021.
