 Default is to use a total of   8 processors:
                                8 via shared-memory
                                1 via Linda
 Entering Link 1 = d:\study\G16W\l1.exe PID=     22316.
  
 Copyright (c) 1988-2017, Gaussian, Inc.  All Rights Reserved.
  
 This is part of the Gaussian(R) 16 program.  It is based on
 the Gaussian(R) 09 system (copyright 2009, Gaussian, Inc.),
 the Gaussian(R) 03 system (copyright 2003, Gaussian, Inc.),
 the Gaussian(R) 98 system (copyright 1998, Gaussian, Inc.),
 the Gaussian(R) 94 system (copyright 1995, Gaussian, Inc.),
 the Gaussian 92(TM) system (copyright 1992, Gaussian, Inc.),
 the Gaussian 90(TM) system (copyright 1990, Gaussian, Inc.),
 the Gaussian 88(TM) system (copyright 1988, Gaussian, Inc.),
 the Gaussian 86(TM) system (copyright 1986, Carnegie Mellon
 University), and the Gaussian 82(TM) system (copyright 1983,
 Carnegie Mellon University). Gaussian is a federally registered
 trademark of Gaussian, Inc.
  
 This software contains proprietary and confidential information,
 including trade secrets, belonging to Gaussian, Inc.
  
 This software is provided under written license and may be
 used, copied, transmitted, or stored only in accord with that
 written license.
  
 The following legend is applicable only to US Government
 contracts under FAR:
  
                    RESTRICTED RIGHTS LEGEND
  
 Use, reproduction and disclosure by the US Government is
 subject to restrictions as set forth in subparagraphs (a)
 and (c) of the Commercial Computer Software - Restricted
 Rights clause in FAR 52.227-19.
  
 Gaussian, Inc.
 340 Quinnipiac St., Bldg. 40, Wallingford CT 06492
  
  
 ---------------------------------------------------------------
 Warning -- This program may not be used in any manner that
 competes with the business of Gaussian, Inc. or will provide
 assistance to any competitor of Gaussian, Inc.  The licensee
 of this program is prohibited from giving any competitor of
 Gaussian, Inc. access to this program.  By using this program,
 the user acknowledges that Gaussian, Inc. is engaged in the
 business of creating and licensing software in the field of
 computational chemistry and represents and warrants to the
 licensee that it is not a competitor of Gaussian, Inc. and that
 it will not use this program in any manner prohibited above.
 ---------------------------------------------------------------
  

 Cite this work as:
 Gaussian 16, Revision B.01,
 M. J. Frisch, G. W. Trucks, H. B. Schlegel, G. E. Scuseria, 
 M. A. Robb, J. R. Cheeseman, G. Scalmani, V. Barone, 
 G. A. Petersson, H. Nakatsuji, X. Li, M. Caricato, A. V. Marenich, 
 J. Bloino, B. G. Janesko, R. Gomperts, B. Mennucci, H. P. Hratchian, 
 J. V. Ortiz, A. F. Izmaylov, J. L. Sonnenberg, D. Williams-Young, 
 F. Ding, F. Lipparini, F. Egidi, J. Goings, B. Peng, A. Petrone, 
 T. Henderson, D. Ranasinghe, V. G. Zakrzewski, J. Gao, N. Rega, 
 G. Zheng, W. Liang, M. Hada, M. Ehara, K. Toyota, R. Fukuda, 
 J. Hasegawa, M. Ishida, T. Nakajima, Y. Honda, O. Kitao, H. Nakai, 
 T. Vreven, K. Throssell, J. A. Montgomery, Jr., J. E. Peralta, 
 F. Ogliaro, M. J. Bearpark, J. J. Heyd, E. N. Brothers, K. N. Kudin, 
 V. N. Staroverov, T. A. Keith, R. Kobayashi, J. Normand, 
 K. Raghavachari, A. P. Rendell, J. C. Burant, S. S. Iyengar, 
 J. Tomasi, M. Cossi, J. M. Millam, M. Klene, C. Adamo, R. Cammi, 
 J. W. Ochterski, R. L. Martin, K. Morokuma, O. Farkas, 
 J. B. Foresman, and D. J. Fox, Gaussian, Inc., Wallingford CT, 2016.
 
 ******************************************
 Gaussian 16:  EM64W-G16RevB.01 16-Dec-2017
                19-Jul-2021 
 ******************************************
 --------------------------------
 # b3lyp/6-31g(d) pop=full nosymm
 --------------------------------
 1/38=1,172=1/1;
 2/12=2,15=1,17=6,18=5,40=1/2;
 3/5=1,6=6,7=1,11=2,25=1,30=1,74=-5/1,2,3;
 4//1;
 5/5=2,38=5/2;
 6/7=3,28=1/1;
 99/5=1,9=1/99;
 ------------------
 B3LYP/6-31G* opted
 ------------------
 Symbolic Z-matrix:
 Charge =  0 Multiplicity = 1
 N                     0.        0.        0.731 
 H                     0.        0.95142   1.09979 
 H                     0.82396  -0.47571   1.09979 
 H                    -0.82396  -0.47571   1.09979 
 
                          Input orientation:                          
 ---------------------------------------------------------------------
 Center     Atomic      Atomic             Coordinates (Angstroms)
 Number     Number       Type             X           Y           Z
 ---------------------------------------------------------------------
      1          7           0        0.000000    0.000000    0.731002
      2          1           0        0.000000    0.951422    1.099792
      3          1           0        0.823955   -0.475711    1.099792
      4          1           0       -0.823955   -0.475711    1.099792
 ---------------------------------------------------------------------
                    Distance matrix (angstroms):
                    1          2          3          4
     1  N    0.000000
     2  H    1.020397   0.000000
     3  H    1.020396   1.647911   0.000000
     4  H    1.020396   1.647911   1.647910   0.000000
 Symmetry turned off by external request.
 Stoichiometry    H3N
 Framework group  C3V[C3(N),3SGV(H)]
 Deg. of freedom     2
 Full point group                 C3V     NOp   6
 Rotational constants (GHZ):         296.1287736         296.1284153         184.6565641
 Standard basis: 6-31G(d) (6D, 7F)
    21 basis functions,    40 primitive gaussians,    21 cartesian basis functions
     5 alpha electrons        5 beta electrons
       nuclear repulsion energy        11.8539507846 Hartrees.
 NAtoms=    4 NActive=    4 NUniq=    4 SFac= 1.00D+00 NAtFMM=   60 NAOKFM=F Big=F
 Integral buffers will be    131072 words long.
 Raffenetti 2 integral format.
 Two-electron integral symmetry is turned off.
 One-electron integrals computed using PRISM.
 NBasis=    21 RedAO= T EigKep=  2.28D-02  NBF=    21
 NBsUse=    21 1.00D-06 EigRej= -1.00D+00 NBFU=    21
 ExpMin= 1.61D-01 ExpMax= 4.17D+03 ExpMxC= 6.27D+02 IAcc=3 IRadAn=         5 AccDes= 0.00D+00
 Harris functional with IExCor=  402 and IRadAn=       5 diagonalized for initial guess.
 HarFok:  IExCor=  402 AccDes= 0.00D+00 IRadAn=         5 IDoV= 1 UseB2=F ITyADJ=14
 ICtDFT=  3500011 ScaDFX=  1.000000  1.000000  1.000000  1.000000
 FoFCou: FMM=F IPFlag=           0 FMFlag=      100000 FMFlg1=           0
         NFxFlg=           0 DoJE=T BraDBF=F KetDBF=T FulRan=T
         wScrn=  0.000000 ICntrl=       500 IOpCl=  0 I1Cent=   200000004 NGrid=           0
         NMat0=    1 NMatS0=      1 NMatT0=    0 NMatD0=    1 NMtDS0=    0 NMtDT0=    0
 Symmetry not used in FoFCou.
 Keep R1 ints in memory in canonical form, NReq=6931845.
 Requested convergence on RMS density matrix=1.00D-08 within 128 cycles.
 Requested convergence on MAX density matrix=1.00D-06.
 Requested convergence on             energy=1.00D-06.
 No special actions if energy rises.
 Integral accuracy reduced to 1.0D-05 until final iterations.
 Initial convergence to 1.0D-05 achieved.  Increase integral accuracy.
 SCF Done:  E(RB3LYP) =  -56.5477099054     A.U. after   10 cycles
            NFock= 10  Conv=0.98D-09     -V/T= 2.0095

 **********************************************************************

            Population analysis using the SCF Density.

 **********************************************************************

 Alpha  occ. eigenvalues --  -14.30444  -0.84066  -0.45375  -0.45375  -0.24668
 Alpha virt. eigenvalues --    0.07927   0.16857   0.16857   0.68886   0.68886
 Alpha virt. eigenvalues --    0.72183   0.90525   0.91634   0.91634   1.13548
 Alpha virt. eigenvalues --    1.67838   1.67838   1.96984   2.39816   2.39816
 Alpha virt. eigenvalues --    3.67132
     Molecular Orbital Coefficients:
                           1         2         3         4         5
                           O         O         O         O         O
     Eigenvalues --   -14.30444  -0.84066  -0.45375  -0.45375  -0.24668
   1 1   N  1S          0.99271  -0.19950   0.00000   0.00000   0.07145
   2        2S          0.03463   0.41679   0.00000   0.00000  -0.15497
   3        2PX         0.00000   0.00000   0.00000   0.48101   0.00000
   4        2PY         0.00000   0.00000   0.48101   0.00000   0.00000
   5        2PZ         0.00127   0.10926   0.00000   0.00000   0.55870
   6        3S          0.00383   0.42847   0.00000   0.00000  -0.32034
   7        3PX         0.00000   0.00000   0.00000   0.24720   0.00000
   8        3PY         0.00000   0.00000   0.24720   0.00000   0.00000
   9        3PZ        -0.00036   0.05511   0.00000   0.00000   0.47547
  10        4XX        -0.00818   0.00785  -0.01409   0.00000  -0.00810
  11        4YY        -0.00818   0.00785   0.01409   0.00000  -0.00810
  12        4ZZ        -0.00822  -0.00752   0.00000   0.00000   0.03974
  13        4XY         0.00000   0.00000   0.00000  -0.01627   0.00000
  14        4XZ         0.00000   0.00000   0.00000   0.03330   0.00000
  15        4YZ         0.00000   0.00000   0.03330   0.00000   0.00000
  16 2   H  1S          0.00024   0.13932   0.28032   0.00000   0.06196
  17        2S         -0.00037   0.01277   0.19203   0.00000   0.06283
  18 3   H  1S          0.00024   0.13932  -0.14016   0.24277   0.06196
  19        2S         -0.00037   0.01277  -0.09602   0.16630   0.06283
  20 4   H  1S          0.00024   0.13932  -0.14016  -0.24277   0.06196
  21        2S         -0.00037   0.01277  -0.09602  -0.16630   0.06283
                           6         7         8         9        10
                           V         V         V         V         V
     Eigenvalues --     0.07927   0.16857   0.16857   0.68886   0.68886
   1 1   N  1S         -0.12924   0.00000   0.00000   0.00000   0.00000
   2        2S          0.17405   0.00000   0.00000   0.00000   0.00000
   3        2PX         0.00000   0.00000  -0.41710  -0.35956   0.00000
   4        2PY         0.00000  -0.41710   0.00000   0.00000  -0.35956
   5        2PZ         0.18854   0.00000   0.00000   0.00000   0.00000
   6        3S          1.81439   0.00000   0.00000   0.00000   0.00000
   7        3PX         0.00000   0.00000  -1.01905   1.17504   0.00000
   8        3PY         0.00000  -1.01905   0.00000   0.00000   1.17504
   9        3PZ         0.44495   0.00000   0.00000   0.00000   0.00000
  10        4XX        -0.03323  -0.00613   0.00000   0.00000   0.12902
  11        4YY        -0.03323   0.00613   0.00000   0.00000  -0.12903
  12        4ZZ        -0.03047   0.00000   0.00000   0.00000   0.00000
  13        4XY         0.00000   0.00000  -0.00708   0.14898   0.00000
  14        4XZ         0.00000   0.00000  -0.01551  -0.08434   0.00000
  15        4YZ         0.00000  -0.01551   0.00000   0.00000  -0.08434
  16 2   H  1S         -0.05998   0.10294   0.00000   0.00000  -0.77578
  17        2S         -0.91876   1.63348   0.00000   0.00000   0.08984
  18 3   H  1S         -0.05998  -0.05147   0.08915  -0.67184   0.38789
  19        2S         -0.91876  -0.81674   1.41464   0.07780  -0.04492
  20 4   H  1S         -0.05998  -0.05147  -0.08915   0.67184   0.38789
  21        2S         -0.91876  -0.81674  -1.41464  -0.07780  -0.04492
                          11        12        13        14        15
                           V         V         V         V         V
     Eigenvalues --     0.72183   0.90525   0.91634   0.91634   1.13548
   1 1   N  1S         -0.01843   0.06914   0.00000   0.00000  -0.08123
   2        2S          0.15773  -0.60593  -0.00001   0.00000  -1.58204
   3        2PX         0.00000   0.00000   0.00000  -0.99079   0.00000
   4        2PY         0.00000  -0.00002   0.99079   0.00000   0.00000
   5        2PZ        -0.98436  -0.21707   0.00000   0.00000  -0.14900
   6        3S          0.06096   0.79886   0.00002   0.00000   4.11552
   7        3PX         0.00000   0.00000   0.00000   1.41483   0.00000
   8        3PY         0.00000   0.00003  -1.41483   0.00000   0.00000
   9        3PZ         1.11061  -0.05131   0.00000   0.00000   0.76200
  10        4XX         0.04113   0.02057   0.08998   0.00000  -0.39540
  11        4YY         0.04112   0.02058  -0.08998   0.00000  -0.39540
  12        4ZZ         0.04433  -0.23757  -0.00001   0.00000  -0.07574
  13        4XY         0.00000   0.00000   0.00000  -0.10390   0.00000
  14        4XZ         0.00000   0.00000   0.00000   0.06601   0.00000
  15        4YZ         0.00000   0.00000  -0.06601   0.00000   0.00000
  16 2   H  1S         -0.04302   0.71918  -0.55237   0.00000  -0.29037
  17        2S         -0.12929  -0.53871   1.46906   0.00000  -0.81684
  18 3   H  1S         -0.04301   0.71916   0.27621   0.47838  -0.29037
  19        2S         -0.12929  -0.53866  -0.73455  -1.27225  -0.81684
  20 4   H  1S         -0.04301   0.71916   0.27621  -0.47838  -0.29037
  21        2S         -0.12929  -0.53866  -0.73454   1.27225  -0.81684
                          16        17        18        19        20
                           V         V         V         V         V
     Eigenvalues --     1.67838   1.67838   1.96984   2.39816   2.39816
   1 1   N  1S          0.00000   0.00000  -0.05260   0.00000   0.00000
   2        2S          0.00000   0.00000  -0.45799   0.00000   0.00000
   3        2PX         0.00000  -0.01841   0.00000   0.00000  -0.06261
   4        2PY        -0.01841   0.00000   0.00000  -0.06261   0.00000
   5        2PZ         0.00000   0.00000   0.02086   0.00000   0.00000
   6        3S          0.00000   0.00000   1.49845   0.00000   0.00000
   7        3PX         0.00000  -0.04534   0.00000   0.00000  -0.67792
   8        3PY        -0.04534   0.00000   0.00000  -0.67792   0.00000
   9        3PZ         0.00000   0.00000   0.42437   0.00000   0.00000
  10        4XX         0.54094   0.00000   0.45067   0.81235   0.00000
  11        4YY        -0.54094   0.00000   0.45068  -0.81235   0.00000
  12        4ZZ         0.00000   0.00000  -1.07042   0.00000   0.00000
  13        4XY         0.00000   0.62462   0.00000   0.00000   0.93802
  14        4XZ         0.00000   0.78007   0.00000   0.00000  -0.74898
  15        4YZ         0.78007   0.00000   0.00000  -0.74898   0.00000
  16 2   H  1S          0.03834   0.00000  -0.46707   0.91353   0.00000
  17        2S          0.00455   0.00000  -0.19683  -0.01872   0.00000
  18 3   H  1S         -0.01917   0.03320  -0.46707  -0.45677   0.79114
  19        2S         -0.00228   0.00394  -0.19683   0.00936  -0.01621
  20 4   H  1S         -0.01917  -0.03320  -0.46707  -0.45677  -0.79114
  21        2S         -0.00228  -0.00394  -0.19683   0.00936   0.01621
                          21
                           V
     Eigenvalues --     3.67132
   1 1   N  1S         -0.46624
   2        2S          1.16418
   3        2PX         0.00000
   4        2PY         0.00000
   5        2PZ        -0.09301
   6        3S          3.18890
   7        3PX         0.00000
   8        3PY         0.00000
   9        3PZ         0.30604
  10        4XX        -1.50249
  11        4YY        -1.50249
  12        4ZZ        -1.52516
  13        4XY         0.00000
  14        4XZ         0.00000
  15        4YZ         0.00000
  16 2   H  1S          0.14177
  17        2S         -0.56457
  18 3   H  1S          0.14177
  19        2S         -0.56457
  20 4   H  1S          0.14177
  21        2S         -0.56457
     Density Matrix:
                           1         2         3         4         5
   1 1   N  1S          2.06074
   2        2S         -0.11970   0.39786
   3        2PX         0.00000   0.00000   0.46274
   4        2PY         0.00000   0.00000   0.00000   0.46274
   5        2PZ         0.03877  -0.08200   0.00000   0.00000   0.64817
   6        3S         -0.20913   0.45671   0.00000   0.00000  -0.26431
   7        3PX         0.00000   0.00000   0.23781   0.00000   0.00000
   8        3PY         0.00000   0.00000   0.00000   0.23781   0.00000
   9        3PZ         0.04525  -0.10145   0.00000   0.00000   0.54334
  10        4XX        -0.02054   0.00849   0.00000  -0.01355  -0.00735
  11        4YY        -0.02054   0.00849   0.00000   0.01355  -0.00735
  12        4ZZ        -0.00764  -0.01915   0.00000   0.00000   0.04274
  13        4XY         0.00000   0.00000  -0.01565   0.00000   0.00000
  14        4XZ         0.00000   0.00000   0.03204   0.00000   0.00000
  15        4YZ         0.00000   0.00000   0.00000   0.03204   0.00000
  16 2   H  1S         -0.04625   0.09694   0.00000   0.26968   0.09968
  17        2S          0.00315  -0.00885   0.00000   0.18474   0.07300
  18 3   H  1S         -0.04625   0.09694   0.23355  -0.13484   0.09968
  19        2S          0.00315  -0.00885   0.15999  -0.09237   0.07300
  20 4   H  1S         -0.04625   0.09694  -0.23355  -0.13484   0.09968
  21        2S          0.00315  -0.00885  -0.15999  -0.09237   0.07300
                           6         7         8         9        10
   6        3S          0.57244
   7        3PX         0.00000   0.12221
   8        3PY         0.00000   0.00000   0.12221
   9        3PZ        -0.25740   0.00000   0.00000   0.45823
  10        4XX         0.01186   0.00000  -0.00697  -0.00683   0.00079
  11        4YY         0.01186   0.00000   0.00697  -0.00683  -0.00001
  12        4ZZ        -0.03197   0.00000   0.00000   0.03696  -0.00063
  13        4XY         0.00000  -0.00804   0.00000   0.00000   0.00000
  14        4XZ         0.00000   0.01646   0.00000   0.00000   0.00000
  15        4YZ         0.00000   0.00000   0.01646   0.00000  -0.00094
  16 2   H  1S          0.07969   0.00000   0.13859   0.07428  -0.00672
  17        2S         -0.02932   0.00000   0.09494   0.06116  -0.00622
  18 3   H  1S          0.07969   0.12002  -0.06930   0.07428   0.00513
  19        2S         -0.02932   0.08222  -0.04747   0.06116   0.00189
  20 4   H  1S          0.07969  -0.12002  -0.06930   0.07428   0.00513
  21        2S         -0.02932  -0.08222  -0.04747   0.06116   0.00189
                          11        12        13        14        15
  11        4YY         0.00079
  12        4ZZ        -0.00063   0.00341
  13        4XY         0.00000   0.00000   0.00053
  14        4XZ         0.00000   0.00000  -0.00108   0.00222
  15        4YZ         0.00094   0.00000   0.00000   0.00000   0.00222
  16 2   H  1S          0.00908   0.00282   0.00000   0.00000   0.01867
  17        2S          0.00460   0.00481   0.00000   0.00000   0.01279
  18 3   H  1S         -0.00277   0.00282  -0.00790   0.01617  -0.00933
  19        2S         -0.00352   0.00481  -0.00541   0.01108  -0.00639
  20 4   H  1S         -0.00277   0.00282   0.00790  -0.01617  -0.00933
  21        2S         -0.00352   0.00481   0.00541  -0.01108  -0.00639
                          16        17        18        19        20
  16 2   H  1S          0.20366
  17        2S          0.11901   0.08197
  18 3   H  1S         -0.03209  -0.04249   0.20366
  19        2S         -0.04249  -0.02865   0.11901   0.08197
  20 4   H  1S         -0.03209  -0.04249  -0.03209  -0.04249   0.20366
  21        2S         -0.04249  -0.02865  -0.04249  -0.02865   0.11901
                          21
  21        2S          0.08197
    Full Mulliken population analysis:
                           1         2         3         4         5
   1 1   N  1S          2.06074
   2        2S         -0.02660   0.39786
   3        2PX         0.00000   0.00000   0.46274
   4        2PY         0.00000   0.00000   0.00000   0.46274
   5        2PZ         0.00000   0.00000   0.00000   0.00000   0.64817
   6        3S         -0.03594   0.35418   0.00000   0.00000   0.00000
   7        3PX         0.00000   0.00000   0.12349   0.00000   0.00000
   8        3PY         0.00000   0.00000   0.00000   0.12349   0.00000
   9        3PZ         0.00000   0.00000   0.00000   0.00000   0.28215
  10        4XX        -0.00104   0.00540   0.00000   0.00000   0.00000
  11        4YY        -0.00104   0.00540   0.00000   0.00000   0.00000
  12        4ZZ        -0.00038  -0.01218   0.00000   0.00000   0.00000
  13        4XY         0.00000   0.00000   0.00000   0.00000   0.00000
  14        4XZ         0.00000   0.00000   0.00000   0.00000   0.00000
  15        4YZ         0.00000   0.00000   0.00000   0.00000   0.00000
  16 2   H  1S         -0.00156   0.02487   0.00000   0.08116   0.01163
  17        2S          0.00025  -0.00373   0.00000   0.03356   0.00514
  18 3   H  1S         -0.00156   0.02487   0.06087   0.02029   0.01163
  19        2S          0.00025  -0.00373   0.02517   0.00839   0.00514
  20 4   H  1S         -0.00156   0.02487   0.06087   0.02029   0.01163
  21        2S          0.00025  -0.00373   0.02517   0.00839   0.00514
                           6         7         8         9        10
   6        3S          0.57244
   7        3PX         0.00000   0.12221
   8        3PY         0.00000   0.00000   0.12221
   9        3PZ         0.00000   0.00000   0.00000   0.45823
  10        4XX         0.00795   0.00000   0.00000   0.00000   0.00079
  11        4YY         0.00795   0.00000   0.00000   0.00000   0.00000
  12        4ZZ        -0.02143   0.00000   0.00000   0.00000  -0.00021
  13        4XY         0.00000   0.00000   0.00000   0.00000   0.00000
  14        4XZ         0.00000   0.00000   0.00000   0.00000   0.00000
  15        4YZ         0.00000   0.00000   0.00000   0.00000   0.00000
  16 2   H  1S          0.03223   0.00000   0.07147   0.01485  -0.00096
  17        2S         -0.02056   0.00000   0.04764   0.01190  -0.00235
  18 3   H  1S          0.03223   0.05360   0.01787   0.01485   0.00196
  19        2S         -0.02056   0.03573   0.01191   0.01190   0.00081
  20 4   H  1S          0.03223   0.05360   0.01787   0.01485   0.00196
  21        2S         -0.02056   0.03573   0.01191   0.01190   0.00081
                          11        12        13        14        15
  11        4YY         0.00079
  12        4ZZ        -0.00021   0.00341
  13        4XY         0.00000   0.00000   0.00053
  14        4XZ         0.00000   0.00000   0.00000   0.00222
  15        4YZ         0.00000   0.00000   0.00000   0.00000   0.00222
  16 2   H  1S          0.00419   0.00054   0.00000   0.00000   0.00401
  17        2S          0.00204   0.00186   0.00000   0.00000   0.00057
  18 3   H  1S         -0.00062   0.00054   0.00189   0.00300   0.00100
  19        2S         -0.00138   0.00186   0.00027   0.00042   0.00014
  20 4   H  1S         -0.00062   0.00054   0.00189   0.00300   0.00100
  21        2S         -0.00138   0.00186   0.00027   0.00042   0.00014
                          16        17        18        19        20
  16 2   H  1S          0.20366
  17        2S          0.07834   0.08197
  18 3   H  1S         -0.00101  -0.00783   0.20366
  19        2S         -0.00783  -0.01311   0.07834   0.08197
  20 4   H  1S         -0.00101  -0.00783  -0.00101  -0.00783   0.20366
  21        2S         -0.00783  -0.01311  -0.00783  -0.01311   0.07834
                          21
  21        2S          0.08197
     Gross orbital populations:
                           1
   1 1   N  1S          1.99182
   2        2S          0.78748
   3        2PX         0.75833
   4        2PY         0.75833
   5        2PZ         0.98063
   6        3S          0.92013
   7        3PX         0.42437
   8        3PY         0.42437
   9        3PZ         0.82061
  10        4XX         0.01512
  11        4YY         0.01512
  12        4ZZ        -0.02381
  13        4XY         0.00485
  14        4XZ         0.00907
  15        4YZ         0.00907
  16 2   H  1S          0.50676
  17        2S          0.19475
  18 3   H  1S          0.50676
  19        2S          0.19474
  20 4   H  1S          0.50676
  21        2S          0.19474
          Condensed to atoms (all electrons):
               1          2          3          4
     1  N    6.939250   0.318746   0.318746   0.318746
     2  H    0.318746   0.442316  -0.029780  -0.029780
     3  H    0.318746  -0.029780   0.442316  -0.029780
     4  H    0.318746  -0.029780  -0.029780   0.442316
 Mulliken charges:
               1
     1  N   -0.895490
     2  H    0.298496
     3  H    0.298497
     4  H    0.298497
 Sum of Mulliken charges =   0.00000
 Mulliken charges with hydrogens summed into heavy atoms:
               1
     1  N    0.000000
 Electronic spatial extent (au):  <R**2>=             49.3554
 Charge=              0.0000 electrons
 Dipole moment (field-independent basis, Debye):
    X=              0.0000    Y=              0.0000    Z=              1.8101  Tot=              1.8101
 Quadrupole moment (field-independent basis, Debye-Ang):
   XX=             -6.0635   YY=             -6.0635   ZZ=             -5.8184
   XY=              0.0000   XZ=              0.0000   YZ=              0.0000
 Traceless Quadrupole moment (field-independent basis, Debye-Ang):
   XX=             -0.0817   YY=             -0.0817   ZZ=              0.1634
   XY=              0.0000   XZ=              0.0000   YZ=              0.0000
 Octapole moment (field-independent basis, Debye-Ang**2):
  XXX=              0.0000  YYY=              0.8385  ZZZ=            -16.9191  XYY=              0.0000
  XXY=             -0.8385  XXZ=             -4.2560  XZZ=              0.0000  YZZ=              0.0000
  YYZ=             -4.2560  XYZ=              0.0000
 Hexadecapole moment (field-independent basis, Debye-Ang**3):
 XXXX=             -9.5659 YYYY=             -9.5659 ZZZZ=            -37.6001 XXXY=              0.0000
 XXXZ=              0.0000 YYYX=              0.0000 YYYZ=              1.0014 ZZZX=              0.0000
 ZZZY=              0.0000 XXYY=             -3.1886 XXZZ=             -6.1513 YYZZ=             -6.1513
 XXYZ=             -1.0014 YYXZ=              0.0000 ZZXY=              0.0000
 N-N= 1.185395078458D+01 E-N=-1.555508682251D+02  KE= 5.601469663233D+01
 Orbital energies and kinetic energies (alpha):
                                 1                 2
   1         O               -14.304442         21.959589
   2         O                -0.840656          1.804200
   3         O                -0.453748          1.309945
   4         O                -0.453748          1.309945
   5         O                -0.246676          1.623668
   6         V                 0.079267          1.032656
   7         V                 0.168574          1.054546
   8         V                 0.168574          1.054546
   9         V                 0.688858          1.656346
  10         V                 0.688859          1.656346
  11         V                 0.721831          2.758935
  12         V                 0.905250          2.764849
  13         V                 0.916343          3.267206
  14         V                 0.916343          3.267206
  15         V                 1.135482          2.050502
  16         V                 1.678377          2.799212
  17         V                 1.678377          2.799212
  18         V                 1.969838          3.108274
  19         V                 2.398159          3.728873
  20         V                 2.398160          3.728874
  21         V                 3.671322          9.581803
 Total kinetic energy from orbitals= 5.601469663233D+01
 1|1|UNPC-GP76|SP|RB3LYP|6-31G(d)|H3N1|SOBEREVA|19-Jul-2021|0||# b3lyp/
 6-31g(d) pop=full nosymm||B3LYP/6-31G* opted||0,1|N,0,0.,0.,0.731002|H
 ,0,0.,0.951422,1.099792|H,0,0.823955,-0.475711,1.099792|H,0,-0.823955,
 -0.475711,1.099792||Version=EM64W-G16RevB.01|HF=-56.5477099|RMSD=9.823
 e-010|Dipole=0.,-0.0000002,0.7121622|Quadrupole=-0.0607476,-0.0607451,
 0.1214927,0.,0.,-0.0000005|PG=C03V [C3(N1),3SGV(H1)]||@


 I WANT IT ALL - RICH, THIN, AND CHOCOLATE.
 Job cpu time:       0 days  0 hours  0 minutes  1.0 seconds.
 Elapsed time:       0 days  0 hours  0 minutes  1.2 seconds.
 File lengths (MBytes):  RWF=      6 Int=      0 D2E=      0 Chk=      1 Scr=      1
 Normal termination of Gaussian 16 at Mon Jul 19 05:03:07 2021.
