 Entering Gaussian System, Link 0=g16
 Initial command:
 /sob/g16/l1.exe "/PM9A1/gauscr/Gau-120770.inp" -scrdir="/PM9A1/gauscr/"
 Default is to use a total of  96 processors:
                               96 via shared-memory
                                1 via Linda
 Entering Link 1 = /sob/g16/l1.exe PID=    120771.
  
 Copyright (c) 1988-2021, Gaussian, Inc.  All Rights Reserved.
  
 This is part of the Gaussian(R) 16 program.  It is based on
 the Gaussian(R) 09 system (copyright 2009, Gaussian, Inc.),
 the Gaussian(R) 03 system (copyright 2003, Gaussian, Inc.),
 the Gaussian(R) 98 system (copyright 1998, Gaussian, Inc.),
 the Gaussian(R) 94 system (copyright 1995, Gaussian, Inc.),
 the Gaussian 92(TM) system (copyright 1992, Gaussian, Inc.),
 the Gaussian 90(TM) system (copyright 1990, Gaussian, Inc.),
 the Gaussian 88(TM) system (copyright 1988, Gaussian, Inc.),
 the Gaussian 86(TM) system (copyright 1986, Carnegie Mellon
 University), and the Gaussian 82(TM) system (copyright 1983,
 Carnegie Mellon University). Gaussian is a federally registered
 trademark of Gaussian, Inc.
  
 This software contains proprietary and confidential information,
 including trade secrets, belonging to Gaussian, Inc.
  
 This software is provided under written license and may be
 used, copied, transmitted, or stored only in accord with that
 written license.
  
 The following legend is applicable only to US Government
 contracts under FAR:
  
                    RESTRICTED RIGHTS LEGEND
  
 Use, reproduction and disclosure by the US Government is
 subject to restrictions as set forth in subparagraphs (a)
 and (c) of the Commercial Computer Software - Restricted
 Rights clause in FAR 52.227-19.
  
 Gaussian, Inc.
 340 Quinnipiac St., Bldg. 40, Wallingford CT 06492
  
  
 ---------------------------------------------------------------
 Warning -- This program may not be used in any manner that
 competes with the business of Gaussian, Inc. or will provide
 assistance to any competitor of Gaussian, Inc.  The licensee
 of this program is prohibited from giving any competitor of
 Gaussian, Inc. access to this program.  By using this program,
 the user acknowledges that Gaussian, Inc. is engaged in the
 business of creating and licensing software in the field of
 computational chemistry and represents and warrants to the
 licensee that it is not a competitor of Gaussian, Inc. and that
 it will not use this program in any manner prohibited above.
 ---------------------------------------------------------------
  

 Cite this work as:
 Gaussian 16, Revision C.02,
 M. J. Frisch, G. W. Trucks, H. B. Schlegel, G. E. Scuseria, 
 M. A. Robb, J. R. Cheeseman, G. Scalmani, V. Barone, 
 G. A. Petersson, H. Nakatsuji, X. Li, M. Caricato, A. V. Marenich, 
 J. Bloino, B. G. Janesko, R. Gomperts, B. Mennucci, H. P. Hratchian, 
 J. V. Ortiz, A. F. Izmaylov, J. L. Sonnenberg, D. Williams-Young, 
 F. Ding, F. Lipparini, F. Egidi, J. Goings, B. Peng, A. Petrone, 
 T. Henderson, D. Ranasinghe, V. G. Zakrzewski, J. Gao, N. Rega, 
 G. Zheng, W. Liang, M. Hada, M. Ehara, K. Toyota, R. Fukuda, 
 J. Hasegawa, M. Ishida, T. Nakajima, Y. Honda, O. Kitao, H. Nakai, 
 T. Vreven, K. Throssell, J. A. Montgomery, Jr., J. E. Peralta, 
 F. Ogliaro, M. J. Bearpark, J. J. Heyd, E. N. Brothers, K. N. Kudin, 
 V. N. Staroverov, T. A. Keith, R. Kobayashi, J. Normand, 
 K. Raghavachari, A. P. Rendell, J. C. Burant, S. S. Iyengar, 
 J. Tomasi, M. Cossi, J. M. Millam, M. Klene, C. Adamo, R. Cammi, 
 J. W. Ochterski, R. L. Martin, K. Morokuma, O. Farkas, 
 J. B. Foresman, and D. J. Fox, Gaussian, Inc., Wallingford CT, 2019.
 
 ******************************************
 Gaussian 16:  ES64L-G16RevC.02  7-Dec-2021
                 6-Aug-2023 
 ******************************************
 Default route: IOp(8/117=-99) IOp(7/127=-99) scf=noincore
 --------------------------------------------------------
 #p b3lyp/6-31+G* nmr=csgt iop(10/93=2) geom=connectivity
 --------------------------------------------------------
 1/38=1,57=2,172=1/1;
 2/12=2,17=6,18=5,40=1/2;
 3/5=1,6=6,7=11,11=2,25=1,30=1,74=-5/1,2,3,8;
 4//1;
 5/5=2,38=5/2;
 8/6=1,10=90,11=11,117=-99/1;
 10/13=100,45=4,93=2/2;
 6/7=2,8=2,9=2,10=2,28=1/1;
 99/9=1/99;
 Leave Link    1 at Sun Aug  6 04:27:37 2023, MaxMem=           0 cpu:               2.0 elap:               0.1
 (Enter /sob/g16/l101.exe)
 -------------
 template file
 -------------
 Symbolic Z-matrix:
 Charge = -1 Multiplicity = 1
 C                     0.        1.203     0. 
 C                     1.144     0.372     0. 
 H                     2.181     0.709     0. 
 C                     0.707    -0.973     0. 
 H                     1.348    -1.856     0. 
 C                    -1.144     0.372     0. 
 H                    -2.181     0.709     0. 
 C                    -0.707    -0.973     0. 
 H                    -1.348    -1.856     0. 
 H                     0.        2.294     0. 
 Bq                    0.        0.00038  -10. 
 Bq                    0.        0.00038  -9.8995 
 Bq                    0.        0.00038  -9.79899 
 Bq                    0.        0.00038  -9.69849 
 Bq                    0.        0.00038  -9.59799 
 Bq                    0.        0.00038  -9.49749 
 Bq                    0.        0.00038  -9.39699 
 Bq                    0.        0.00038  -9.29648 
 Bq                    0.        0.00038  -9.19598 
 Bq                    0.        0.00038  -9.09548 
 Bq                    0.        0.00038  -8.99498 
 Bq                    0.        0.00038  -8.89447 
 Bq                    0.        0.00038  -8.79397 
 Bq                    0.        0.00038  -8.69347 
 Bq                    0.        0.00038  -8.59296 
 Bq                    0.        0.00038  -8.49246 
 Bq                    0.        0.00038  -8.39196 
 Bq                    0.        0.00038  -8.29146 
 Bq                    0.        0.00038  -8.19096 
 Bq                    0.        0.00038  -8.09045 
 Bq                    0.        0.00038  -7.98995 
 Bq                    0.        0.00038  -7.88945 
 Bq                    0.        0.00038  -7.78895 
 Bq                    0.        0.00038  -7.68844 
 Bq                    0.        0.00038  -7.58794 
 Bq                    0.        0.00038  -7.48744 
 Bq                    0.        0.00038  -7.38694 
 Bq                    0.        0.00038  -7.28643 
 Bq                    0.        0.00038  -7.18593 
 Bq                    0.        0.00038  -7.08543 
 Bq                    0.        0.00038  -6.98493 
 Bq                    0.        0.00038  -6.88442 
 Bq                    0.        0.00038  -6.78392 
 Bq                    0.        0.00038  -6.68342 
 Bq                    0.        0.00038  -6.58291 
 Bq                    0.        0.00038  -6.48241 
 Bq                    0.        0.00038  -6.38191 
 Bq                    0.        0.00038  -6.28141 
 Bq                    0.        0.00038  -6.18091 
 Bq                    0.        0.00038  -6.0804 
 Bq                    0.        0.00038  -5.9799 
 Bq                    0.        0.00038  -5.8794 
 Bq                    0.        0.00038  -5.77889 
 Bq                    0.        0.00038  -5.67839 
 Bq                    0.        0.00038  -5.57789 
 Bq                    0.        0.00038  -5.47739 
 Bq                    0.        0.00038  -5.37688 
 Bq                    0.        0.00038  -5.27638 
 Bq                    0.        0.00038  -5.17588 
 Bq                    0.        0.00038  -5.07538 
 Bq                    0.        0.00038  -4.97487 
 Bq                    0.        0.00038  -4.87437 
 Bq                    0.        0.00038  -4.77387 
 Bq                    0.        0.00038  -4.67337 
 Bq                    0.        0.00038  -4.57286 
 Bq                    0.        0.00038  -4.47236 
 Bq                    0.        0.00038  -4.37186 
 Bq                    0.        0.00038  -4.27136 
 Bq                    0.        0.00038  -4.17085 
 Bq                    0.        0.00038  -4.07035 
 Bq                    0.        0.00038  -3.96985 
 Bq                    0.        0.00038  -3.86935 
 Bq                    0.        0.00038  -3.76884 
 Bq                    0.        0.00038  -3.66834 
 Bq                    0.        0.00038  -3.56784 
 Bq                    0.        0.00038  -3.46734 
 Bq                    0.        0.00038  -3.36683 
 Bq                    0.        0.00038  -3.26633 
 Bq                    0.        0.00038  -3.16583 
 Bq                    0.        0.00038  -3.06533 
 Bq                    0.        0.00038  -2.96482 
 Bq                    0.        0.00038  -2.86432 
 Bq                    0.        0.00038  -2.76382 
 Bq                    0.        0.00038  -2.66332 
 Bq                    0.        0.00038  -2.56281 
 Bq                    0.        0.00038  -2.46231 
 Bq                    0.        0.00038  -2.36181 
 Bq                    0.        0.00038  -2.26131 
 Bq                    0.        0.00038  -2.1608 
 Bq                    0.        0.00038  -2.0603 
 Bq                    0.        0.00038  -1.9598 
 Bq                    0.        0.00038  -1.8593 
 Bq                    0.        0.00038  -1.75879 
 Bq                    0.        0.00038  -1.65829 
 Bq                    0.        0.00038  -1.55779 
 Bq                    0.        0.00038  -1.45729 
 Bq                    0.        0.00038  -1.35678 
 Bq                    0.        0.00038  -1.25628 
 Bq                    0.        0.00038  -1.15578 
 Bq                    0.        0.00038  -1.05528 
 Bq                    0.        0.00038  -0.95477 
 Bq                    0.        0.00038  -0.85427 
 Bq                    0.        0.00038  -0.75377 
 Bq                    0.        0.00038  -0.65327 
 Bq                    0.        0.00038  -0.55276 
 Bq                    0.        0.00038  -0.45226 
 Bq                    0.        0.00038  -0.35176 
 Bq                    0.        0.00038  -0.25126 
 Bq                    0.        0.00038  -0.15075 
 Bq                    0.        0.00038  -0.05025 
 Bq                    0.        0.00038   0.05025 
 Bq                    0.        0.00038   0.15075 
 Bq                    0.        0.00038   0.25126 
 Bq                    0.        0.00038   0.35176 
 Bq                    0.        0.00038   0.45226 
 Bq                    0.        0.00038   0.55276 
 Bq                    0.        0.00038   0.65327 
 Bq                    0.        0.00038   0.75377 
 Bq                    0.        0.00038   0.85427 
 Bq                    0.        0.00038   0.95477 
 Bq                    0.        0.00038   1.05528 
 Bq                    0.        0.00038   1.15578 
 Bq                    0.        0.00038   1.25628 
 Bq                    0.        0.00038   1.35678 
 Bq                    0.        0.00038   1.45729 
 Bq                    0.        0.00038   1.55779 
 Bq                    0.        0.00038   1.65829 
 Bq                    0.        0.00038   1.75879 
 Bq                    0.        0.00038   1.8593 
 Bq                    0.        0.00038   1.9598 
 Bq                    0.        0.00038   2.0603 
 Bq                    0.        0.00038   2.1608 
 Bq                    0.        0.00038   2.26131 
 Bq                    0.        0.00038   2.36181 
 Bq                    0.        0.00038   2.46231 
 Bq                    0.        0.00038   2.56281 
 Bq                    0.        0.00038   2.66332 
 Bq                    0.        0.00038   2.76382 
 Bq                    0.        0.00038   2.86432 
 Bq                    0.        0.00038   2.96482 
 Bq                    0.        0.00038   3.06533 
 Bq                    0.        0.00038   3.16583 
 Bq                    0.        0.00038   3.26633 
 Bq                    0.        0.00038   3.36683 
 Bq                    0.        0.00038   3.46734 
 Bq                    0.        0.00038   3.56784 
 Bq                    0.        0.00038   3.66834 
 Bq                    0.        0.00038   3.76884 
 Bq                    0.        0.00038   3.86935 
 Bq                    0.        0.00038   3.96985 
 Bq                    0.        0.00038   4.07035 
 Bq                    0.        0.00038   4.17085 
 Bq                    0.        0.00038   4.27136 
 Bq                    0.        0.00038   4.37186 
 Bq                    0.        0.00038   4.47236 
 Bq                    0.        0.00038   4.57286 
 Bq                    0.        0.00038   4.67337 
 Bq                    0.        0.00038   4.77387 
 Bq                    0.        0.00038   4.87437 
 Bq                    0.        0.00038   4.97487 
 Bq                    0.        0.00038   5.07538 
 Bq                    0.        0.00038   5.17588 
 Bq                    0.        0.00038   5.27638 
 Bq                    0.        0.00038   5.37688 
 Bq                    0.        0.00038   5.47739 
 Bq                    0.        0.00038   5.57789 
 Bq                    0.        0.00038   5.67839 
 Bq                    0.        0.00038   5.77889 
 Bq                    0.        0.00038   5.8794 
 Bq                    0.        0.00038   5.9799 
 Bq                    0.        0.00038   6.0804 
 Bq                    0.        0.00038   6.18091 
 Bq                    0.        0.00038   6.28141 
 Bq                    0.        0.00038   6.38191 
 Bq                    0.        0.00038   6.48241 
 Bq                    0.        0.00038   6.58291 
 Bq                    0.        0.00038   6.68342 
 Bq                    0.        0.00038   6.78392 
 Bq                    0.        0.00038   6.88442 
 Bq                    0.        0.00038   6.98493 
 Bq                    0.        0.00038   7.08543 
 Bq                    0.        0.00038   7.18593 
 Bq                    0.        0.00038   7.28643 
 Bq                    0.        0.00038   7.38694 
 Bq                    0.        0.00038   7.48744 
 Bq                    0.        0.00038   7.58794 
 Bq                    0.        0.00038   7.68844 
 Bq                    0.        0.00038   7.78895 
 Bq                    0.        0.00038   7.88945 
 Bq                    0.        0.00038   7.98995 
 Bq                    0.        0.00038   8.09045 
 Bq                    0.        0.00038   8.19096 
 Bq                    0.        0.00038   8.29146 
 Bq                    0.        0.00038   8.39196 
 Bq                    0.        0.00038   8.49246 
 Bq                    0.        0.00038   8.59296 
 Bq                    0.        0.00038   8.69347 
 Bq                    0.        0.00038   8.79397 
 Bq                    0.        0.00038   8.89447 
 Bq                    0.        0.00038   8.99498 
 Bq                    0.        0.00038   9.09548 
 Bq                    0.        0.00038   9.19598 
 Bq                    0.        0.00038   9.29648 
 Bq                    0.        0.00038   9.39699 
 Bq                    0.        0.00038   9.49749 
 Bq                    0.        0.00038   9.59799 
 Bq                    0.        0.00038   9.69849 
 Bq                    0.        0.00038   9.79899 
 Bq                    0.        0.00038   9.8995 
 Bq                    0.        0.00038   10. 
 
 ITRead=  0  0  0  0  0  0  0  0  0  0  0  0  0  0  0  0  0  0  0  0
 ITRead=  0  0  0  0  0  0  0  0  0  0  0  0  0  0  0  0  0  0  0  0
 ITRead=  0  0  0  0  0  0  0  0  0  0  0  0  0  0  0  0  0  0  0  0
 ITRead=  0  0  0  0  0  0  0  0  0  0  0  0  0  0  0  0  0  0  0  0
 ITRead=  0  0  0  0  0  0  0  0  0  0  0  0  0  0  0  0  0  0  0  0
 ITRead=  0  0  0  0  0  0  0  0  0  0  0  0  0  0  0  0  0  0  0  0
 ITRead=  0  0  0  0  0  0  0  0  0  0  0  0  0  0  0  0  0  0  0  0
 ITRead=  0  0  0  0  0  0  0  0  0  0  0  0  0  0  0  0  0  0  0  0
 ITRead=  0  0  0  0  0  0  0  0  0  0  0  0  0  0  0  0  0  0  0  0
 ITRead=  0  0  0  0  0  0  0  0  0  0  0  0  0  0  0  0  0  0  0  0
 ITRead=  0  0  0  0  0  0  0  0  0  0
 MicOpt= -1 -1 -1 -1 -1 -1 -1 -1 -1 -1 -1 -1 -1 -1 -1 -1 -1 -1 -1 -1
 MicOpt= -1 -1 -1 -1 -1 -1 -1 -1 -1 -1 -1 -1 -1 -1 -1 -1 -1 -1 -1 -1
 MicOpt= -1 -1 -1 -1 -1 -1 -1 -1 -1 -1 -1 -1 -1 -1 -1 -1 -1 -1 -1 -1
 MicOpt= -1 -1 -1 -1 -1 -1 -1 -1 -1 -1 -1 -1 -1 -1 -1 -1 -1 -1 -1 -1
 MicOpt= -1 -1 -1 -1 -1 -1 -1 -1 -1 -1 -1 -1 -1 -1 -1 -1 -1 -1 -1 -1
 MicOpt= -1 -1 -1 -1 -1 -1 -1 -1 -1 -1 -1 -1 -1 -1 -1 -1 -1 -1 -1 -1
 MicOpt= -1 -1 -1 -1 -1 -1 -1 -1 -1 -1 -1 -1 -1 -1 -1 -1 -1 -1 -1 -1
 MicOpt= -1 -1 -1 -1 -1 -1 -1 -1 -1 -1 -1 -1 -1 -1 -1 -1 -1 -1 -1 -1
 MicOpt= -1 -1 -1 -1 -1 -1 -1 -1 -1 -1 -1 -1 -1 -1 -1 -1 -1 -1 -1 -1
 MicOpt= -1 -1 -1 -1 -1 -1 -1 -1 -1 -1 -1 -1 -1 -1 -1 -1 -1 -1 -1 -1
 MicOpt= -1 -1 -1 -1 -1 -1 -1 -1 -1 -1
 NAtoms=    210 NQM=      210 NQMF=       0 NMMI=      0 NMMIF=      0
                NMic=       0 NMicF=      0.
                    Isotopes and Nuclear Properties:
 (Nuclear quadrupole moments (NQMom) in fm**2, nuclear magnetic moments (NMagM)
  in nuclear magnetons)

  Atom         1           2           3           4           5           6           7           8           9          10
 IAtWgt=          12          12           1          12           1          12           1          12           1           1
 AtmWgt=  12.0000000  12.0000000   1.0078250  12.0000000   1.0078250  12.0000000   1.0078250  12.0000000   1.0078250   1.0078250
 NucSpn=           0           0           1           0           1           0           1           0           1           1
 AtZEff=  -0.0000000  -0.0000000  -0.0000000  -0.0000000  -0.0000000  -0.0000000  -0.0000000  -0.0000000  -0.0000000  -0.0000000
 NQMom=    0.0000000   0.0000000   0.0000000   0.0000000   0.0000000   0.0000000   0.0000000   0.0000000   0.0000000   0.0000000
 NMagM=    0.0000000   0.0000000   2.7928460   0.0000000   2.7928460   0.0000000   2.7928460   0.0000000   2.7928460   2.7928460
 AtZNuc=   6.0000000   6.0000000   1.0000000   6.0000000   1.0000000   6.0000000   1.0000000   6.0000000   1.0000000   1.0000000

  Atom        11          12          13          14          15          16          17          18          19          20
 IAtWgt=           0           0           0           0           0           0           0           0           0           0
 AtmWgt=   0.0000000   0.0000000   0.0000000   0.0000000   0.0000000   0.0000000   0.0000000   0.0000000   0.0000000   0.0000000
 NucSpn=           0           0           0           0           0           0           0           0           0           0
 AtZEff=  -0.0000000  -0.0000000  -0.0000000  -0.0000000  -0.0000000  -0.0000000  -0.0000000  -0.0000000  -0.0000000  -0.0000000
 NQMom=    0.0000000   0.0000000   0.0000000   0.0000000   0.0000000   0.0000000   0.0000000   0.0000000   0.0000000   0.0000000
 NMagM=    0.0000000   0.0000000   0.0000000   0.0000000   0.0000000   0.0000000   0.0000000   0.0000000   0.0000000   0.0000000
 AtZNuc=   0.0000000   0.0000000   0.0000000   0.0000000   0.0000000   0.0000000   0.0000000   0.0000000   0.0000000   0.0000000

  Atom        21          22          23          24          25          26          27          28          29          30
 IAtWgt=           0           0           0           0           0           0           0           0           0           0
 AtmWgt=   0.0000000   0.0000000   0.0000000   0.0000000   0.0000000   0.0000000   0.0000000   0.0000000   0.0000000   0.0000000
 NucSpn=           0           0           0           0           0           0           0           0           0           0
 AtZEff=  -0.0000000  -0.0000000  -0.0000000  -0.0000000  -0.0000000  -0.0000000  -0.0000000  -0.0000000  -0.0000000  -0.0000000
 NQMom=    0.0000000   0.0000000   0.0000000   0.0000000   0.0000000   0.0000000   0.0000000   0.0000000   0.0000000   0.0000000
 NMagM=    0.0000000   0.0000000   0.0000000   0.0000000   0.0000000   0.0000000   0.0000000   0.0000000   0.0000000   0.0000000
 AtZNuc=   0.0000000   0.0000000   0.0000000   0.0000000   0.0000000   0.0000000   0.0000000   0.0000000   0.0000000   0.0000000

  Atom        31          32          33          34          35          36          37          38          39          40
 IAtWgt=           0           0           0           0           0           0           0           0           0           0
 AtmWgt=   0.0000000   0.0000000   0.0000000   0.0000000   0.0000000   0.0000000   0.0000000   0.0000000   0.0000000   0.0000000
 NucSpn=           0           0           0           0           0           0           0           0           0           0
 AtZEff=  -0.0000000  -0.0000000  -0.0000000  -0.0000000  -0.0000000  -0.0000000  -0.0000000  -0.0000000  -0.0000000  -0.0000000
 NQMom=    0.0000000   0.0000000   0.0000000   0.0000000   0.0000000   0.0000000   0.0000000   0.0000000   0.0000000   0.0000000
 NMagM=    0.0000000   0.0000000   0.0000000   0.0000000   0.0000000   0.0000000   0.0000000   0.0000000   0.0000000   0.0000000
 AtZNuc=   0.0000000   0.0000000   0.0000000   0.0000000   0.0000000   0.0000000   0.0000000   0.0000000   0.0000000   0.0000000

  Atom        41          42          43          44          45          46          47          48          49          50
 IAtWgt=           0           0           0           0           0           0           0           0           0           0
 AtmWgt=   0.0000000   0.0000000   0.0000000   0.0000000   0.0000000   0.0000000   0.0000000   0.0000000   0.0000000   0.0000000
 NucSpn=           0           0           0           0           0           0           0           0           0           0
 AtZEff=  -0.0000000  -0.0000000  -0.0000000  -0.0000000  -0.0000000  -0.0000000  -0.0000000  -0.0000000  -0.0000000  -0.0000000
 NQMom=    0.0000000   0.0000000   0.0000000   0.0000000   0.0000000   0.0000000   0.0000000   0.0000000   0.0000000   0.0000000
 NMagM=    0.0000000   0.0000000   0.0000000   0.0000000   0.0000000   0.0000000   0.0000000   0.0000000   0.0000000   0.0000000
 AtZNuc=   0.0000000   0.0000000   0.0000000   0.0000000   0.0000000   0.0000000   0.0000000   0.0000000   0.0000000   0.0000000

  Atom        51          52          53          54          55          56          57          58          59          60
 IAtWgt=           0           0           0           0           0           0           0           0           0           0
 AtmWgt=   0.0000000   0.0000000   0.0000000   0.0000000   0.0000000   0.0000000   0.0000000   0.0000000   0.0000000   0.0000000
 NucSpn=           0           0           0           0           0           0           0           0           0           0
 AtZEff=  -0.0000000  -0.0000000  -0.0000000  -0.0000000  -0.0000000  -0.0000000  -0.0000000  -0.0000000  -0.0000000  -0.0000000
 NQMom=    0.0000000   0.0000000   0.0000000   0.0000000   0.0000000   0.0000000   0.0000000   0.0000000   0.0000000   0.0000000
 NMagM=    0.0000000   0.0000000   0.0000000   0.0000000   0.0000000   0.0000000   0.0000000   0.0000000   0.0000000   0.0000000
 AtZNuc=   0.0000000   0.0000000   0.0000000   0.0000000   0.0000000   0.0000000   0.0000000   0.0000000   0.0000000   0.0000000

  Atom        61          62          63          64          65          66          67          68          69          70
 IAtWgt=           0           0           0           0           0           0           0           0           0           0
 AtmWgt=   0.0000000   0.0000000   0.0000000   0.0000000   0.0000000   0.0000000   0.0000000   0.0000000   0.0000000   0.0000000
 NucSpn=           0           0           0           0           0           0           0           0           0           0
 AtZEff=  -0.0000000  -0.0000000  -0.0000000  -0.0000000  -0.0000000  -0.0000000  -0.0000000  -0.0000000  -0.0000000  -0.0000000
 NQMom=    0.0000000   0.0000000   0.0000000   0.0000000   0.0000000   0.0000000   0.0000000   0.0000000   0.0000000   0.0000000
 NMagM=    0.0000000   0.0000000   0.0000000   0.0000000   0.0000000   0.0000000   0.0000000   0.0000000   0.0000000   0.0000000
 AtZNuc=   0.0000000   0.0000000   0.0000000   0.0000000   0.0000000   0.0000000   0.0000000   0.0000000   0.0000000   0.0000000

  Atom        71          72          73          74          75          76          77          78          79          80
 IAtWgt=           0           0           0           0           0           0           0           0           0           0
 AtmWgt=   0.0000000   0.0000000   0.0000000   0.0000000   0.0000000   0.0000000   0.0000000   0.0000000   0.0000000   0.0000000
 NucSpn=           0           0           0           0           0           0           0           0           0           0
 AtZEff=  -0.0000000  -0.0000000  -0.0000000  -0.0000000  -0.0000000  -0.0000000  -0.0000000  -0.0000000  -0.0000000  -0.0000000
 NQMom=    0.0000000   0.0000000   0.0000000   0.0000000   0.0000000   0.0000000   0.0000000   0.0000000   0.0000000   0.0000000
 NMagM=    0.0000000   0.0000000   0.0000000   0.0000000   0.0000000   0.0000000   0.0000000   0.0000000   0.0000000   0.0000000
 AtZNuc=   0.0000000   0.0000000   0.0000000   0.0000000   0.0000000   0.0000000   0.0000000   0.0000000   0.0000000   0.0000000

  Atom        81          82          83          84          85          86          87          88          89          90
 IAtWgt=           0           0           0           0           0           0           0           0           0           0
 AtmWgt=   0.0000000   0.0000000   0.0000000   0.0000000   0.0000000   0.0000000   0.0000000   0.0000000   0.0000000   0.0000000
 NucSpn=           0           0           0           0           0           0           0           0           0           0
 AtZEff=  -0.0000000  -0.0000000  -0.0000000  -0.0000000  -0.0000000  -0.0000000  -0.0000000  -0.0000000  -0.0000000  -0.0000000
 NQMom=    0.0000000   0.0000000   0.0000000   0.0000000   0.0000000   0.0000000   0.0000000   0.0000000   0.0000000   0.0000000
 NMagM=    0.0000000   0.0000000   0.0000000   0.0000000   0.0000000   0.0000000   0.0000000   0.0000000   0.0000000   0.0000000
 AtZNuc=   0.0000000   0.0000000   0.0000000   0.0000000   0.0000000   0.0000000   0.0000000   0.0000000   0.0000000   0.0000000

  Atom        91          92          93          94          95          96          97          98          99         100
 IAtWgt=           0           0           0           0           0           0           0           0           0           0
 AtmWgt=   0.0000000   0.0000000   0.0000000   0.0000000   0.0000000   0.0000000   0.0000000   0.0000000   0.0000000   0.0000000
 NucSpn=           0           0           0           0           0           0           0           0           0           0
 AtZEff=  -0.0000000  -0.0000000  -0.0000000  -0.0000000  -0.0000000  -0.0000000  -0.0000000  -0.0000000  -0.0000000  -0.0000000
 NQMom=    0.0000000   0.0000000   0.0000000   0.0000000   0.0000000   0.0000000   0.0000000   0.0000000   0.0000000   0.0000000
 NMagM=    0.0000000   0.0000000   0.0000000   0.0000000   0.0000000   0.0000000   0.0000000   0.0000000   0.0000000   0.0000000
 AtZNuc=   0.0000000   0.0000000   0.0000000   0.0000000   0.0000000   0.0000000   0.0000000   0.0000000   0.0000000   0.0000000

  Atom       101         102         103         104         105         106         107         108         109         110
 IAtWgt=           0           0           0           0           0           0           0           0           0           0
 AtmWgt=   0.0000000   0.0000000   0.0000000   0.0000000   0.0000000   0.0000000   0.0000000   0.0000000   0.0000000   0.0000000
 NucSpn=           0           0           0           0           0           0           0           0           0           0
 AtZEff=  -0.0000000  -0.0000000  -0.0000000  -0.0000000  -0.0000000  -0.0000000  -0.0000000  -0.0000000  -0.0000000  -0.0000000
 NQMom=    0.0000000   0.0000000   0.0000000   0.0000000   0.0000000   0.0000000   0.0000000   0.0000000   0.0000000   0.0000000
 NMagM=    0.0000000   0.0000000   0.0000000   0.0000000   0.0000000   0.0000000   0.0000000   0.0000000   0.0000000   0.0000000
 AtZNuc=   0.0000000   0.0000000   0.0000000   0.0000000   0.0000000   0.0000000   0.0000000   0.0000000   0.0000000   0.0000000

  Atom       111         112         113         114         115         116         117         118         119         120
 IAtWgt=           0           0           0           0           0           0           0           0           0           0
 AtmWgt=   0.0000000   0.0000000   0.0000000   0.0000000   0.0000000   0.0000000   0.0000000   0.0000000   0.0000000   0.0000000
 NucSpn=           0           0           0           0           0           0           0           0           0           0
 AtZEff=  -0.0000000  -0.0000000  -0.0000000  -0.0000000  -0.0000000  -0.0000000  -0.0000000  -0.0000000  -0.0000000  -0.0000000
 NQMom=    0.0000000   0.0000000   0.0000000   0.0000000   0.0000000   0.0000000   0.0000000   0.0000000   0.0000000   0.0000000
 NMagM=    0.0000000   0.0000000   0.0000000   0.0000000   0.0000000   0.0000000   0.0000000   0.0000000   0.0000000   0.0000000
 AtZNuc=   0.0000000   0.0000000   0.0000000   0.0000000   0.0000000   0.0000000   0.0000000   0.0000000   0.0000000   0.0000000

  Atom       121         122         123         124         125         126         127         128         129         130
 IAtWgt=           0           0           0           0           0           0           0           0           0           0
 AtmWgt=   0.0000000   0.0000000   0.0000000   0.0000000   0.0000000   0.0000000   0.0000000   0.0000000   0.0000000   0.0000000
 NucSpn=           0           0           0           0           0           0           0           0           0           0
 AtZEff=  -0.0000000  -0.0000000  -0.0000000  -0.0000000  -0.0000000  -0.0000000  -0.0000000  -0.0000000  -0.0000000  -0.0000000
 NQMom=    0.0000000   0.0000000   0.0000000   0.0000000   0.0000000   0.0000000   0.0000000   0.0000000   0.0000000   0.0000000
 NMagM=    0.0000000   0.0000000   0.0000000   0.0000000   0.0000000   0.0000000   0.0000000   0.0000000   0.0000000   0.0000000
 AtZNuc=   0.0000000   0.0000000   0.0000000   0.0000000   0.0000000   0.0000000   0.0000000   0.0000000   0.0000000   0.0000000

  Atom       131         132         133         134         135         136         137         138         139         140
 IAtWgt=           0           0           0           0           0           0           0           0           0           0
 AtmWgt=   0.0000000   0.0000000   0.0000000   0.0000000   0.0000000   0.0000000   0.0000000   0.0000000   0.0000000   0.0000000
 NucSpn=           0           0           0           0           0           0           0           0           0           0
 AtZEff=  -0.0000000  -0.0000000  -0.0000000  -0.0000000  -0.0000000  -0.0000000  -0.0000000  -0.0000000  -0.0000000  -0.0000000
 NQMom=    0.0000000   0.0000000   0.0000000   0.0000000   0.0000000   0.0000000   0.0000000   0.0000000   0.0000000   0.0000000
 NMagM=    0.0000000   0.0000000   0.0000000   0.0000000   0.0000000   0.0000000   0.0000000   0.0000000   0.0000000   0.0000000
 AtZNuc=   0.0000000   0.0000000   0.0000000   0.0000000   0.0000000   0.0000000   0.0000000   0.0000000   0.0000000   0.0000000

  Atom       141         142         143         144         145         146         147         148         149         150
 IAtWgt=           0           0           0           0           0           0           0           0           0           0
 AtmWgt=   0.0000000   0.0000000   0.0000000   0.0000000   0.0000000   0.0000000   0.0000000   0.0000000   0.0000000   0.0000000
 NucSpn=           0           0           0           0           0           0           0           0           0           0
 AtZEff=  -0.0000000  -0.0000000  -0.0000000  -0.0000000  -0.0000000  -0.0000000  -0.0000000  -0.0000000  -0.0000000  -0.0000000
 NQMom=    0.0000000   0.0000000   0.0000000   0.0000000   0.0000000   0.0000000   0.0000000   0.0000000   0.0000000   0.0000000
 NMagM=    0.0000000   0.0000000   0.0000000   0.0000000   0.0000000   0.0000000   0.0000000   0.0000000   0.0000000   0.0000000
 AtZNuc=   0.0000000   0.0000000   0.0000000   0.0000000   0.0000000   0.0000000   0.0000000   0.0000000   0.0000000   0.0000000

  Atom       151         152         153         154         155         156         157         158         159         160
 IAtWgt=           0           0           0           0           0           0           0           0           0           0
 AtmWgt=   0.0000000   0.0000000   0.0000000   0.0000000   0.0000000   0.0000000   0.0000000   0.0000000   0.0000000   0.0000000
 NucSpn=           0           0           0           0           0           0           0           0           0           0
 AtZEff=  -0.0000000  -0.0000000  -0.0000000  -0.0000000  -0.0000000  -0.0000000  -0.0000000  -0.0000000  -0.0000000  -0.0000000
 NQMom=    0.0000000   0.0000000   0.0000000   0.0000000   0.0000000   0.0000000   0.0000000   0.0000000   0.0000000   0.0000000
 NMagM=    0.0000000   0.0000000   0.0000000   0.0000000   0.0000000   0.0000000   0.0000000   0.0000000   0.0000000   0.0000000
 AtZNuc=   0.0000000   0.0000000   0.0000000   0.0000000   0.0000000   0.0000000   0.0000000   0.0000000   0.0000000   0.0000000

  Atom       161         162         163         164         165         166         167         168         169         170
 IAtWgt=           0           0           0           0           0           0           0           0           0           0
 AtmWgt=   0.0000000   0.0000000   0.0000000   0.0000000   0.0000000   0.0000000   0.0000000   0.0000000   0.0000000   0.0000000
 NucSpn=           0           0           0           0           0           0           0           0           0           0
 AtZEff=  -0.0000000  -0.0000000  -0.0000000  -0.0000000  -0.0000000  -0.0000000  -0.0000000  -0.0000000  -0.0000000  -0.0000000
 NQMom=    0.0000000   0.0000000   0.0000000   0.0000000   0.0000000   0.0000000   0.0000000   0.0000000   0.0000000   0.0000000
 NMagM=    0.0000000   0.0000000   0.0000000   0.0000000   0.0000000   0.0000000   0.0000000   0.0000000   0.0000000   0.0000000
 AtZNuc=   0.0000000   0.0000000   0.0000000   0.0000000   0.0000000   0.0000000   0.0000000   0.0000000   0.0000000   0.0000000

  Atom       171         172         173         174         175         176         177         178         179         180
 IAtWgt=           0           0           0           0           0           0           0           0           0           0
 AtmWgt=   0.0000000   0.0000000   0.0000000   0.0000000   0.0000000   0.0000000   0.0000000   0.0000000   0.0000000   0.0000000
 NucSpn=           0           0           0           0           0           0           0           0           0           0
 AtZEff=  -0.0000000  -0.0000000  -0.0000000  -0.0000000  -0.0000000  -0.0000000  -0.0000000  -0.0000000  -0.0000000  -0.0000000
 NQMom=    0.0000000   0.0000000   0.0000000   0.0000000   0.0000000   0.0000000   0.0000000   0.0000000   0.0000000   0.0000000
 NMagM=    0.0000000   0.0000000   0.0000000   0.0000000   0.0000000   0.0000000   0.0000000   0.0000000   0.0000000   0.0000000
 AtZNuc=   0.0000000   0.0000000   0.0000000   0.0000000   0.0000000   0.0000000   0.0000000   0.0000000   0.0000000   0.0000000

  Atom       181         182         183         184         185         186         187         188         189         190
 IAtWgt=           0           0           0           0           0           0           0           0           0           0
 AtmWgt=   0.0000000   0.0000000   0.0000000   0.0000000   0.0000000   0.0000000   0.0000000   0.0000000   0.0000000   0.0000000
 NucSpn=           0           0           0           0           0           0           0           0           0           0
 AtZEff=  -0.0000000  -0.0000000  -0.0000000  -0.0000000  -0.0000000  -0.0000000  -0.0000000  -0.0000000  -0.0000000  -0.0000000
 NQMom=    0.0000000   0.0000000   0.0000000   0.0000000   0.0000000   0.0000000   0.0000000   0.0000000   0.0000000   0.0000000
 NMagM=    0.0000000   0.0000000   0.0000000   0.0000000   0.0000000   0.0000000   0.0000000   0.0000000   0.0000000   0.0000000
 AtZNuc=   0.0000000   0.0000000   0.0000000   0.0000000   0.0000000   0.0000000   0.0000000   0.0000000   0.0000000   0.0000000

  Atom       191         192         193         194         195         196         197         198         199         200
 IAtWgt=           0           0           0           0           0           0           0           0           0           0
 AtmWgt=   0.0000000   0.0000000   0.0000000   0.0000000   0.0000000   0.0000000   0.0000000   0.0000000   0.0000000   0.0000000
 NucSpn=           0           0           0           0           0           0           0           0           0           0
 AtZEff=  -0.0000000  -0.0000000  -0.0000000  -0.0000000  -0.0000000  -0.0000000  -0.0000000  -0.0000000  -0.0000000  -0.0000000
 NQMom=    0.0000000   0.0000000   0.0000000   0.0000000   0.0000000   0.0000000   0.0000000   0.0000000   0.0000000   0.0000000
 NMagM=    0.0000000   0.0000000   0.0000000   0.0000000   0.0000000   0.0000000   0.0000000   0.0000000   0.0000000   0.0000000
 AtZNuc=   0.0000000   0.0000000   0.0000000   0.0000000   0.0000000   0.0000000   0.0000000   0.0000000   0.0000000   0.0000000

  Atom       201         202         203         204         205         206         207         208         209         210
 IAtWgt=           0           0           0           0           0           0           0           0           0           0
 AtmWgt=   0.0000000   0.0000000   0.0000000   0.0000000   0.0000000   0.0000000   0.0000000   0.0000000   0.0000000   0.0000000
 NucSpn=           0           0           0           0           0           0           0           0           0           0
 AtZEff=  -0.0000000  -0.0000000  -0.0000000  -0.0000000  -0.0000000  -0.0000000  -0.0000000  -0.0000000  -0.0000000  -0.0000000
 NQMom=    0.0000000   0.0000000   0.0000000   0.0000000   0.0000000   0.0000000   0.0000000   0.0000000   0.0000000   0.0000000
 NMagM=    0.0000000   0.0000000   0.0000000   0.0000000   0.0000000   0.0000000   0.0000000   0.0000000   0.0000000   0.0000000
 AtZNuc=   0.0000000   0.0000000   0.0000000   0.0000000   0.0000000   0.0000000   0.0000000   0.0000000   0.0000000   0.0000000
 Leave Link  101 at Sun Aug  6 04:27:37 2023, MaxMem= 64424509440 cpu:               2.2 elap:               0.2
 (Enter /sob/g16/l202.exe)
 Symmetry turned off:
 Cannot cope with ghost atoms or with translation vectors.
 Stoichiometry    C5H5(1-)
 Framework group  C1[X(C5H5)]
 NumDoF:  NAt=    10 NAtoms=   210
 Deg. of freedom     0
 Full point group                 C1      NOp   1
                          Input orientation:                          
 ---------------------------------------------------------------------
 Center     Atomic      Atomic             Coordinates (Angstroms)
 Number     Number       Type             X           Y           Z
 ---------------------------------------------------------------------
      1          6           0        0.000000    1.203000    0.000000
      2          6           0        1.144000    0.372000    0.000000
      3          1           0        2.181000    0.709000    0.000000
      4          6           0        0.707000   -0.973000    0.000000
      5          1           0        1.348000   -1.856000    0.000000
      6          6           0       -1.144000    0.372000    0.000000
      7          1           0       -2.181000    0.709000    0.000000
      8          6           0       -0.707000   -0.973000    0.000000
      9          1           0       -1.348000   -1.856000    0.000000
     10          1           0        0.000000    2.294000    0.000000
     11          0           0        0.000000    0.000378  -10.000000
     12          0           0        0.000000    0.000378   -9.899497
     13          0           0        0.000000    0.000378   -9.798995
     14          0           0        0.000000    0.000378   -9.698492
     15          0           0        0.000000    0.000378   -9.597990
     16          0           0        0.000000    0.000378   -9.497487
     17          0           0        0.000000    0.000378   -9.396985
     18          0           0        0.000000    0.000378   -9.296482
     19          0           0        0.000000    0.000378   -9.195980
     20          0           0        0.000000    0.000378   -9.095477
     21          0           0        0.000000    0.000378   -8.994975
     22          0           0        0.000000    0.000378   -8.894472
     23          0           0        0.000000    0.000378   -8.793970
     24          0           0        0.000000    0.000378   -8.693467
     25          0           0        0.000000    0.000378   -8.592965
     26          0           0        0.000000    0.000378   -8.492462
     27          0           0        0.000000    0.000378   -8.391960
     28          0           0        0.000000    0.000378   -8.291457
     29          0           0        0.000000    0.000378   -8.190955
     30          0           0        0.000000    0.000378   -8.090452
     31          0           0        0.000000    0.000378   -7.989950
     32          0           0        0.000000    0.000378   -7.889447
     33          0           0        0.000000    0.000378   -7.788945
     34          0           0        0.000000    0.000378   -7.688442
     35          0           0        0.000000    0.000378   -7.587940
     36          0           0        0.000000    0.000378   -7.487437
     37          0           0        0.000000    0.000378   -7.386935
     38          0           0        0.000000    0.000378   -7.286432
     39          0           0        0.000000    0.000378   -7.185930
     40          0           0        0.000000    0.000378   -7.085427
     41          0           0        0.000000    0.000378   -6.984925
     42          0           0        0.000000    0.000378   -6.884422
     43          0           0        0.000000    0.000378   -6.783920
     44          0           0        0.000000    0.000378   -6.683417
     45          0           0        0.000000    0.000378   -6.582915
     46          0           0        0.000000    0.000378   -6.482412
     47          0           0        0.000000    0.000378   -6.381910
     48          0           0        0.000000    0.000378   -6.281407
     49          0           0        0.000000    0.000378   -6.180905
     50          0           0        0.000000    0.000378   -6.080402
     51          0           0        0.000000    0.000378   -5.979899
     52          0           0        0.000000    0.000378   -5.879397
     53          0           0        0.000000    0.000378   -5.778894
     54          0           0        0.000000    0.000378   -5.678392
     55          0           0        0.000000    0.000378   -5.577889
     56          0           0        0.000000    0.000378   -5.477387
     57          0           0        0.000000    0.000378   -5.376884
     58          0           0        0.000000    0.000378   -5.276382
     59          0           0        0.000000    0.000378   -5.175879
     60          0           0        0.000000    0.000378   -5.075377
     61          0           0        0.000000    0.000378   -4.974874
     62          0           0        0.000000    0.000378   -4.874372
     63          0           0        0.000000    0.000378   -4.773869
     64          0           0        0.000000    0.000378   -4.673367
     65          0           0        0.000000    0.000378   -4.572864
     66          0           0        0.000000    0.000378   -4.472362
     67          0           0        0.000000    0.000378   -4.371859
     68          0           0        0.000000    0.000378   -4.271357
     69          0           0        0.000000    0.000378   -4.170854
     70          0           0        0.000000    0.000378   -4.070352
     71          0           0        0.000000    0.000378   -3.969849
     72          0           0        0.000000    0.000378   -3.869347
     73          0           0        0.000000    0.000378   -3.768844
     74          0           0        0.000000    0.000378   -3.668342
     75          0           0        0.000000    0.000378   -3.567839
     76          0           0        0.000000    0.000378   -3.467337
     77          0           0        0.000000    0.000378   -3.366834
     78          0           0        0.000000    0.000378   -3.266332
     79          0           0        0.000000    0.000378   -3.165829
     80          0           0        0.000000    0.000378   -3.065327
     81          0           0        0.000000    0.000378   -2.964824
     82          0           0        0.000000    0.000378   -2.864322
     83          0           0        0.000000    0.000378   -2.763819
     84          0           0        0.000000    0.000378   -2.663317
     85          0           0        0.000000    0.000378   -2.562814
     86          0           0        0.000000    0.000378   -2.462312
     87          0           0        0.000000    0.000378   -2.361809
     88          0           0        0.000000    0.000378   -2.261307
     89          0           0        0.000000    0.000378   -2.160804
     90          0           0        0.000000    0.000378   -2.060302
     91          0           0        0.000000    0.000378   -1.959799
     92          0           0        0.000000    0.000378   -1.859296
     93          0           0        0.000000    0.000378   -1.758794
     94          0           0        0.000000    0.000378   -1.658291
     95          0           0        0.000000    0.000378   -1.557789
     96          0           0        0.000000    0.000378   -1.457286
     97          0           0        0.000000    0.000378   -1.356784
     98          0           0        0.000000    0.000378   -1.256281
     99          0           0        0.000000    0.000378   -1.155779
    100          0           0        0.000000    0.000378   -1.055276
    101          0           0        0.000000    0.000378   -0.954774
    102          0           0        0.000000    0.000378   -0.854271
    103          0           0        0.000000    0.000378   -0.753769
    104          0           0        0.000000    0.000378   -0.653266
    105          0           0        0.000000    0.000378   -0.552764
    106          0           0        0.000000    0.000378   -0.452261
    107          0           0        0.000000    0.000378   -0.351759
    108          0           0        0.000000    0.000378   -0.251256
    109          0           0        0.000000    0.000378   -0.150754
    110          0           0        0.000000    0.000378   -0.050251
    111          0           0        0.000000    0.000378    0.050251
    112          0           0        0.000000    0.000378    0.150754
    113          0           0        0.000000    0.000378    0.251256
    114          0           0        0.000000    0.000378    0.351759
    115          0           0        0.000000    0.000378    0.452261
    116          0           0        0.000000    0.000378    0.552764
    117          0           0        0.000000    0.000378    0.653266
    118          0           0        0.000000    0.000378    0.753769
    119          0           0        0.000000    0.000378    0.854271
    120          0           0        0.000000    0.000378    0.954774
    121          0           0        0.000000    0.000378    1.055276
    122          0           0        0.000000    0.000378    1.155779
    123          0           0        0.000000    0.000378    1.256281
    124          0           0        0.000000    0.000378    1.356784
    125          0           0        0.000000    0.000378    1.457286
    126          0           0        0.000000    0.000378    1.557789
    127          0           0        0.000000    0.000378    1.658291
    128          0           0        0.000000    0.000378    1.758794
    129          0           0        0.000000    0.000378    1.859296
    130          0           0        0.000000    0.000378    1.959799
    131          0           0        0.000000    0.000378    2.060302
    132          0           0        0.000000    0.000378    2.160804
    133          0           0        0.000000    0.000378    2.261307
    134          0           0        0.000000    0.000378    2.361809
    135          0           0        0.000000    0.000378    2.462312
    136          0           0        0.000000    0.000378    2.562814
    137          0           0        0.000000    0.000378    2.663317
    138          0           0        0.000000    0.000378    2.763819
    139          0           0        0.000000    0.000378    2.864322
    140          0           0        0.000000    0.000378    2.964824
    141          0           0        0.000000    0.000378    3.065327
    142          0           0        0.000000    0.000378    3.165829
    143          0           0        0.000000    0.000378    3.266332
    144          0           0        0.000000    0.000378    3.366834
    145          0           0        0.000000    0.000378    3.467337
    146          0           0        0.000000    0.000378    3.567839
    147          0           0        0.000000    0.000378    3.668342
    148          0           0        0.000000    0.000378    3.768844
    149          0           0        0.000000    0.000378    3.869347
    150          0           0        0.000000    0.000378    3.969849
    151          0           0        0.000000    0.000378    4.070352
    152          0           0        0.000000    0.000378    4.170854
    153          0           0        0.000000    0.000378    4.271357
    154          0           0        0.000000    0.000378    4.371859
    155          0           0        0.000000    0.000378    4.472362
    156          0           0        0.000000    0.000378    4.572864
    157          0           0        0.000000    0.000378    4.673367
    158          0           0        0.000000    0.000378    4.773869
    159          0           0        0.000000    0.000378    4.874372
    160          0           0        0.000000    0.000378    4.974874
    161          0           0        0.000000    0.000378    5.075377
    162          0           0        0.000000    0.000378    5.175879
    163          0           0        0.000000    0.000378    5.276382
    164          0           0        0.000000    0.000378    5.376884
    165          0           0        0.000000    0.000378    5.477387
    166          0           0        0.000000    0.000378    5.577889
    167          0           0        0.000000    0.000378    5.678392
    168          0           0        0.000000    0.000378    5.778894
    169          0           0        0.000000    0.000378    5.879397
    170          0           0        0.000000    0.000378    5.979899
    171          0           0        0.000000    0.000378    6.080402
    172          0           0        0.000000    0.000378    6.180905
    173          0           0        0.000000    0.000378    6.281407
    174          0           0        0.000000    0.000378    6.381910
    175          0           0        0.000000    0.000378    6.482412
    176          0           0        0.000000    0.000378    6.582915
    177          0           0        0.000000    0.000378    6.683417
    178          0           0        0.000000    0.000378    6.783920
    179          0           0        0.000000    0.000378    6.884422
    180          0           0        0.000000    0.000378    6.984925
    181          0           0        0.000000    0.000378    7.085427
    182          0           0        0.000000    0.000378    7.185930
    183          0           0        0.000000    0.000378    7.286432
    184          0           0        0.000000    0.000378    7.386935
    185          0           0        0.000000    0.000378    7.487437
    186          0           0        0.000000    0.000378    7.587940
    187          0           0        0.000000    0.000378    7.688442
    188          0           0        0.000000    0.000378    7.788945
    189          0           0        0.000000    0.000378    7.889447
    190          0           0        0.000000    0.000378    7.989950
    191          0           0        0.000000    0.000378    8.090452
    192          0           0        0.000000    0.000378    8.190955
    193          0           0        0.000000    0.000378    8.291457
    194          0           0        0.000000    0.000378    8.391960
    195          0           0        0.000000    0.000378    8.492462
    196          0           0        0.000000    0.000378    8.592965
    197          0           0        0.000000    0.000378    8.693467
    198          0           0        0.000000    0.000378    8.793970
    199          0           0        0.000000    0.000378    8.894472
    200          0           0        0.000000    0.000378    8.994975
    201          0           0        0.000000    0.000378    9.095477
    202          0           0        0.000000    0.000378    9.195980
    203          0           0        0.000000    0.000378    9.296482
    204          0           0        0.000000    0.000378    9.396985
    205          0           0        0.000000    0.000378    9.497487
    206          0           0        0.000000    0.000378    9.597990
    207          0           0        0.000000    0.000378    9.698492
    208          0           0        0.000000    0.000378    9.798995
    209          0           0        0.000000    0.000378    9.899497
    210          0           0        0.000000    0.000378   10.000000
 ---------------------------------------------------------------------
 Rotational constants (GHZ):           8.9200296           8.9180160           4.4595114
 Leave Link  202 at Sun Aug  6 04:27:37 2023, MaxMem= 64424509440 cpu:               2.0 elap:               0.1
 (Enter /sob/g16/l301.exe)
 Standard basis: 6-31+G(d) (6D, 7F)
 Warning:  center  11 has no basis functions!
 Warning:  center  12 has no basis functions!
 Warning:  center  13 has no basis functions!
 Warning:  center  14 has no basis functions!
 Warning:  center  15 has no basis functions!
 Warning:  center  16 has no basis functions!
 Warning:  center  17 has no basis functions!
 Warning:  center  18 has no basis functions!
 Warning:  center  19 has no basis functions!
 Warning:  center  20 has no basis functions!
 Warning:  center  21 has no basis functions!
 Warning:  center  22 has no basis functions!
 Warning:  center  23 has no basis functions!
 Warning:  center  24 has no basis functions!
 Warning:  center  25 has no basis functions!
 Warning:  center  26 has no basis functions!
 Warning:  center  27 has no basis functions!
 Warning:  center  28 has no basis functions!
 Warning:  center  29 has no basis functions!
 Warning:  center  30 has no basis functions!
 Warning:  center  31 has no basis functions!
 Warning:  center  32 has no basis functions!
 Warning:  center  33 has no basis functions!
 Warning:  center  34 has no basis functions!
 Warning:  center  35 has no basis functions!
 Warning:  center  36 has no basis functions!
 Warning:  center  37 has no basis functions!
 Warning:  center  38 has no basis functions!
 Warning:  center  39 has no basis functions!
 Warning:  center  40 has no basis functions!
 Warning:  center  41 has no basis functions!
 Warning:  center  42 has no basis functions!
 Warning:  center  43 has no basis functions!
 Warning:  center  44 has no basis functions!
 Warning:  center  45 has no basis functions!
 Warning:  center  46 has no basis functions!
 Warning:  center  47 has no basis functions!
 Warning:  center  48 has no basis functions!
 Warning:  center  49 has no basis functions!
 Warning:  center  50 has no basis functions!
 Warning:  center  51 has no basis functions!
 Warning:  center  52 has no basis functions!
 Warning:  center  53 has no basis functions!
 Warning:  center  54 has no basis functions!
 Warning:  center  55 has no basis functions!
 Warning:  center  56 has no basis functions!
 Warning:  center  57 has no basis functions!
 Warning:  center  58 has no basis functions!
 Warning:  center  59 has no basis functions!
 Warning:  center  60 has no basis functions!
 Warning:  center  61 has no basis functions!
 Warning:  center  62 has no basis functions!
 Warning:  center  63 has no basis functions!
 Warning:  center  64 has no basis functions!
 Warning:  center  65 has no basis functions!
 Warning:  center  66 has no basis functions!
 Warning:  center  67 has no basis functions!
 Warning:  center  68 has no basis functions!
 Warning:  center  69 has no basis functions!
 Warning:  center  70 has no basis functions!
 Warning:  center  71 has no basis functions!
 Warning:  center  72 has no basis functions!
 Warning:  center  73 has no basis functions!
 Warning:  center  74 has no basis functions!
 Warning:  center  75 has no basis functions!
 Warning:  center  76 has no basis functions!
 Warning:  center  77 has no basis functions!
 Warning:  center  78 has no basis functions!
 Warning:  center  79 has no basis functions!
 Warning:  center  80 has no basis functions!
 Warning:  center  81 has no basis functions!
 Warning:  center  82 has no basis functions!
 Warning:  center  83 has no basis functions!
 Warning:  center  84 has no basis functions!
 Warning:  center  85 has no basis functions!
 Warning:  center  86 has no basis functions!
 Warning:  center  87 has no basis functions!
 Warning:  center  88 has no basis functions!
 Warning:  center  89 has no basis functions!
 Warning:  center  90 has no basis functions!
 Warning:  center  91 has no basis functions!
 Warning:  center  92 has no basis functions!
 Warning:  center  93 has no basis functions!
 Warning:  center  94 has no basis functions!
 Warning:  center  95 has no basis functions!
 Warning:  center  96 has no basis functions!
 Warning:  center  97 has no basis functions!
 Warning:  center  98 has no basis functions!
 Warning:  center  99 has no basis functions!
 Warning:  center 100 has no basis functions!
 Warning:  center 101 has no basis functions!
 Warning:  center 102 has no basis functions!
 Warning:  center 103 has no basis functions!
 Warning:  center 104 has no basis functions!
 Warning:  center 105 has no basis functions!
 Warning:  center 106 has no basis functions!
 Warning:  center 107 has no basis functions!
 Warning:  center 108 has no basis functions!
 Warning:  center 109 has no basis functions!
 Warning:  center 110 has no basis functions!
 Warning:  center 111 has no basis functions!
 Warning:  center 112 has no basis functions!
 Warning:  center 113 has no basis functions!
 Warning:  center 114 has no basis functions!
 Warning:  center 115 has no basis functions!
 Warning:  center 116 has no basis functions!
 Warning:  center 117 has no basis functions!
 Warning:  center 118 has no basis functions!
 Warning:  center 119 has no basis functions!
 Warning:  center 120 has no basis functions!
 Warning:  center 121 has no basis functions!
 Warning:  center 122 has no basis functions!
 Warning:  center 123 has no basis functions!
 Warning:  center 124 has no basis functions!
 Warning:  center 125 has no basis functions!
 Warning:  center 126 has no basis functions!
 Warning:  center 127 has no basis functions!
 Warning:  center 128 has no basis functions!
 Warning:  center 129 has no basis functions!
 Warning:  center 130 has no basis functions!
 Warning:  center 131 has no basis functions!
 Warning:  center 132 has no basis functions!
 Warning:  center 133 has no basis functions!
 Warning:  center 134 has no basis functions!
 Warning:  center 135 has no basis functions!
 Warning:  center 136 has no basis functions!
 Warning:  center 137 has no basis functions!
 Warning:  center 138 has no basis functions!
 Warning:  center 139 has no basis functions!
 Warning:  center 140 has no basis functions!
 Warning:  center 141 has no basis functions!
 Warning:  center 142 has no basis functions!
 Warning:  center 143 has no basis functions!
 Warning:  center 144 has no basis functions!
 Warning:  center 145 has no basis functions!
 Warning:  center 146 has no basis functions!
 Warning:  center 147 has no basis functions!
 Warning:  center 148 has no basis functions!
 Warning:  center 149 has no basis functions!
 Warning:  center 150 has no basis functions!
 Warning:  center 151 has no basis functions!
 Warning:  center 152 has no basis functions!
 Warning:  center 153 has no basis functions!
 Warning:  center 154 has no basis functions!
 Warning:  center 155 has no basis functions!
 Warning:  center 156 has no basis functions!
 Warning:  center 157 has no basis functions!
 Warning:  center 158 has no basis functions!
 Warning:  center 159 has no basis functions!
 Warning:  center 160 has no basis functions!
 Warning:  center 161 has no basis functions!
 Warning:  center 162 has no basis functions!
 Warning:  center 163 has no basis functions!
 Warning:  center 164 has no basis functions!
 Warning:  center 165 has no basis functions!
 Warning:  center 166 has no basis functions!
 Warning:  center 167 has no basis functions!
 Warning:  center 168 has no basis functions!
 Warning:  center 169 has no basis functions!
 Warning:  center 170 has no basis functions!
 Warning:  center 171 has no basis functions!
 Warning:  center 172 has no basis functions!
 Warning:  center 173 has no basis functions!
 Warning:  center 174 has no basis functions!
 Warning:  center 175 has no basis functions!
 Warning:  center 176 has no basis functions!
 Warning:  center 177 has no basis functions!
 Warning:  center 178 has no basis functions!
 Warning:  center 179 has no basis functions!
 Warning:  center 180 has no basis functions!
 Warning:  center 181 has no basis functions!
 Warning:  center 182 has no basis functions!
 Warning:  center 183 has no basis functions!
 Warning:  center 184 has no basis functions!
 Warning:  center 185 has no basis functions!
 Warning:  center 186 has no basis functions!
 Warning:  center 187 has no basis functions!
 Warning:  center 188 has no basis functions!
 Warning:  center 189 has no basis functions!
 Warning:  center 190 has no basis functions!
 Warning:  center 191 has no basis functions!
 Warning:  center 192 has no basis functions!
 Warning:  center 193 has no basis functions!
 Warning:  center 194 has no basis functions!
 Warning:  center 195 has no basis functions!
 Warning:  center 196 has no basis functions!
 Warning:  center 197 has no basis functions!
 Warning:  center 198 has no basis functions!
 Warning:  center 199 has no basis functions!
 Warning:  center 200 has no basis functions!
 Warning:  center 201 has no basis functions!
 Warning:  center 202 has no basis functions!
 Warning:  center 203 has no basis functions!
 Warning:  center 204 has no basis functions!
 Warning:  center 205 has no basis functions!
 Warning:  center 206 has no basis functions!
 Warning:  center 207 has no basis functions!
 Warning:  center 208 has no basis functions!
 Warning:  center 209 has no basis functions!
 Warning:  center 210 has no basis functions!
 Ernie: Thresh=  0.10000D-02 Tol=  0.10000D-05 Strict=F.
   105 basis functions,   180 primitive gaussians,   105 cartesian basis functions
    18 alpha electrons       18 beta electrons
       nuclear repulsion energy       148.8269184620 Hartrees.
 IExCor=  402 DFT=T Ex+Corr=B3LYP ExCW=0 ScaHFX=  0.200000
 ScaDFX=  0.800000  0.720000  1.000000  0.810000 ScalE2=  1.000000  1.000000
 IRadAn=      5 IRanWt=     -1 IRanGd=            0 ICorTp=0 IEmpDi=  4
 NAtoms=  210 NActive=  210 NUniq=  210 SFac= 1.00D+00 NAtFMM=   60 NAOKFM=T Big=T
 Integral buffers will be    131072 words long.
 Raffenetti 2 integral format.
 Two-electron integral symmetry is turned off.
 Leave Link  301 at Sun Aug  6 04:27:37 2023, MaxMem= 64424509440 cpu:               1.8 elap:               0.1
 (Enter /sob/g16/l302.exe)
 NPDir=0 NMtPBC=     1 NCelOv=     1 NCel=       1 NClECP=     1 NCelD=      1
         NCelK=      1 NCelE2=     1 NClLst=     1 CellRange=     0.0.
 One-electron integrals computed using PRISM.
 NBasis=   105 RedAO= T EigKep=  3.74D-05  NBF=   105
 NBsUse=   105 1.00D-06 EigRej= -1.00D+00 NBFU=   105
 Precomputing XC quadrature grid using
 IXCGrd= 4 IRadAn=           5 IRanWt=          -1 IRanGd=           0 AccXCQ= 0.00D+00.
 Generated NRdTot=       0 NPtTot=           0 NUsed=           0 NTot=          32
 NSgBfM=   105   105   105   105   105 MxSgAt=   210 MxSgA2=    10.
 Leave Link  302 at Sun Aug  6 04:27:38 2023, MaxMem= 64424509440 cpu:              16.1 elap:               0.3
 (Enter /sob/g16/l303.exe)
 DipDrv:  MaxL=1.
 Leave Link  303 at Sun Aug  6 04:27:38 2023, MaxMem= 64424509440 cpu:               2.3 elap:               0.1
 (Enter /sob/g16/l308.exe)
 Leave Link  308 at Sun Aug  6 04:27:38 2023, MaxMem= 64424509440 cpu:               2.5 elap:               0.1
 (Enter /sob/g16/l401.exe)
 ExpMin= 4.38D-02 ExpMax= 3.05D+03 ExpMxC= 4.57D+02 IAcc=3 IRadAn=         5 AccDes= 0.00D+00
 Harris functional with IExCor=  402 and IRadAn=       5 diagonalized for initial guess.
 HarFok:  IExCor=  402 AccDes= 0.00D+00 IRadAn=         5 IDoV= 1 UseB2=F ITyADJ=14
 ICtDFT=  3500011 ScaDFX=  1.000000  1.000000  1.000000  1.000000
 FoFCou: FMM=F IPFlag=           0 FMFlag=      100000 FMFlg1=        2001
         NFxFlg=           0 DoJE=T BraDBF=F KetDBF=T FulRan=T
         wScrn=  0.000000 ICntrl=       500 IOpCl=  0 I1Cent=   200000004 NGrid=           0
         NMat0=    1 NMatS0=      1 NMatT0=    0 NMatD0=    1 NMtDS0=    0 NMtDT0=    0
 Symmetry not used in FoFCou.
 Harris En= -193.769603932727    
 JPrj=0 DoOrth=F DoCkMO=F.
 Leave Link  401 at Sun Aug  6 04:27:38 2023, MaxMem= 64424509440 cpu:              18.9 elap:               0.3
 (Enter /sob/g16/l502.exe)
 Two-electron integral symmetry not used.
 Closed shell SCF:
 Using DIIS extrapolation, IDIIS=  1040.
 NGot= 64424509440 LenX= 64424466539 LenY= 64424455073
 Requested convergence on RMS density matrix=1.00D-08 within 128 cycles.
 Requested convergence on MAX density matrix=1.00D-06.
 Requested convergence on             energy=1.00D-06.
 No special actions if energy rises.
 Fock matrices will be formed incrementally for  20 cycles.

 Cycle   1  Pass 1  IDiag  1:
 FoFJK:  IHMeth= 1 ICntrl=       0 DoSepK=F KAlg= 0 I1Cent=           0 FoldK=F
 IRaf= 990000000 NMat=       1 IRICut=       1 DoRegI=T DoRafI=F ISym2E= 0 IDoP0=0 IntGTp=1.
 FoFCou: FMM=T IPFlag=           0 FMFlag=      100000 FMFlg1=        2001
         NFxFlg=           0 DoJE=F BraDBF=F KetDBF=F FulRan=T
         wScrn=  0.000000 ICntrl=         0 IOpCl=  0 I1Cent=           0 NGrid=           0
         NMat0=    1 NMatS0=      1 NMatT0=    0 NMatD0=    1 NMtDS0=    0 NMtDT0=    0
 Symmetry not used in FoFCou.
 FMM levels:  10  Number of levels for PrismC:   9
 E= -193.231732255322    
 DIIS: error= 5.93D-02 at cycle   1 NSaved=   1.
 NSaved= 1 IEnMin= 1 EnMin= -193.231732255322     IErMin= 1 ErrMin= 5.93D-02
 ErrMax= 5.93D-02  0.00D+00 EMaxC= 1.00D-01 BMatC= 2.38D-01 BMatP= 2.38D-01
 IDIUse=3 WtCom= 4.07D-01 WtEn= 5.93D-01
 Coeff-Com:  0.100D+01
 Coeff-En:   0.100D+01
 Coeff:      0.100D+01
 Gap=     0.257 Goal=   None    Shift=    0.000
 GapD=    0.257 DampG=1.000 DampE=0.500 DampFc=0.5000 IDamp=-1.
 Damping current iteration by 5.00D-01
 RMSDP=1.22D-01 MaxDP=3.03D+00              OVMax= 5.52D-01

 Cycle   2  Pass 1  IDiag  1:
 RMSU=  6.05D-02    CP:  1.25D+00
 E= -193.204096155693     Delta-E=        0.027636099629 Rises=F Damp=T
 DIIS: error= 2.91D-02 at cycle   2 NSaved=   2.
 NSaved= 2 IEnMin= 1 EnMin= -193.231732255322     IErMin= 2 ErrMin= 2.91D-02
 ErrMax= 2.91D-02  0.00D+00 EMaxC= 1.00D-01 BMatC= 5.74D-02 BMatP= 2.38D-01
 IDIUse=3 WtCom= 7.09D-01 WtEn= 2.91D-01
 Coeff-Com:  0.308D+00 0.692D+00
 Coeff-En:   0.533D+00 0.467D+00
 Coeff:      0.374D+00 0.626D+00
 Gap=     0.118 Goal=   None    Shift=    0.000
 RMSDP=5.07D-02 MaxDP=1.30D+00 DE= 2.76D-02 OVMax= 4.10D-01

 Cycle   3  Pass 1  IDiag  1:
 RMSU=  6.65D-03    CP:  1.01D+00  1.78D-01
 E= -193.534084485063     Delta-E=       -0.329988329370 Rises=F Damp=F
 DIIS: error= 2.79D-03 at cycle   3 NSaved=   3.
 NSaved= 3 IEnMin= 3 EnMin= -193.534084485063     IErMin= 3 ErrMin= 2.79D-03
 ErrMax= 2.79D-03  0.00D+00 EMaxC= 1.00D-01 BMatC= 6.44D-04 BMatP= 5.74D-02
 IDIUse=3 WtCom= 9.72D-01 WtEn= 2.79D-02
 Coeff-Com:  0.244D-01 0.753D-01 0.900D+00
 Coeff-En:   0.000D+00 0.000D+00 0.100D+01
 Coeff:      0.238D-01 0.732D-01 0.903D+00
 Gap=     0.153 Goal=   None    Shift=    0.000
 RMSDP=1.23D-03 MaxDP=2.16D-02 DE=-3.30D-01 OVMax= 6.54D-03

 Cycle   4  Pass 1  IDiag  1:
 RMSU=  6.66D-04    CP:  1.02D+00  1.94D-01  1.02D+00
 E= -193.534678366687     Delta-E=       -0.000593881624 Rises=F Damp=F
 DIIS: error= 5.55D-04 at cycle   4 NSaved=   4.
 NSaved= 4 IEnMin= 4 EnMin= -193.534678366687     IErMin= 4 ErrMin= 5.55D-04
 ErrMax= 5.55D-04  0.00D+00 EMaxC= 1.00D-01 BMatC= 2.71D-05 BMatP= 6.44D-04
 IDIUse=3 WtCom= 9.94D-01 WtEn= 5.55D-03
 Coeff-Com: -0.411D-02 0.253D-02 0.134D+00 0.868D+00
 Coeff-En:   0.000D+00 0.000D+00 0.000D+00 0.100D+01
 Coeff:     -0.408D-02 0.252D-02 0.133D+00 0.869D+00
 Gap=     0.152 Goal=   None    Shift=    0.000
 RMSDP=3.25D-04 MaxDP=5.94D-03 DE=-5.94D-04 OVMax= 2.03D-03

 Cycle   5  Pass 1  IDiag  1:
 RMSU=  1.59D-04    CP:  1.02D+00  1.98D-01  1.04D+00  9.49D-01
 E= -193.534710286581     Delta-E=       -0.000031919894 Rises=F Damp=F
 DIIS: error= 1.66D-04 at cycle   5 NSaved=   5.
 NSaved= 5 IEnMin= 5 EnMin= -193.534710286581     IErMin= 5 ErrMin= 1.66D-04
 ErrMax= 1.66D-04  0.00D+00 EMaxC= 1.00D-01 BMatC= 1.54D-06 BMatP= 2.71D-05
 IDIUse=3 WtCom= 9.98D-01 WtEn= 1.66D-03
 Coeff-Com:  0.639D-03-0.800D-03 0.143D-02 0.145D+00 0.853D+00
 Coeff-En:   0.000D+00 0.000D+00 0.000D+00 0.000D+00 0.100D+01
 Coeff:      0.638D-03-0.799D-03 0.142D-02 0.145D+00 0.854D+00
 Gap=     0.153 Goal=   None    Shift=    0.000
 RMSDP=8.42D-05 MaxDP=1.91D-03 DE=-3.19D-05 OVMax= 4.94D-04

 Cycle   6  Pass 1  IDiag  1:
 RMSU=  1.16D-05    CP:  1.02D+00  1.97D-01  1.04D+00  9.36D-01  9.45D-01
 E= -193.534712318943     Delta-E=       -0.000002032363 Rises=F Damp=F
 DIIS: error= 1.98D-05 at cycle   6 NSaved=   6.
 NSaved= 6 IEnMin= 6 EnMin= -193.534712318943     IErMin= 6 ErrMin= 1.98D-05
 ErrMax= 1.98D-05  0.00D+00 EMaxC= 1.00D-01 BMatC= 2.24D-08 BMatP= 1.54D-06
 IDIUse=1 WtCom= 1.00D+00 WtEn= 0.00D+00
 Coeff-Com:  0.196D-03-0.282D-03-0.931D-04 0.346D-01 0.206D+00 0.760D+00
 Coeff:      0.196D-03-0.282D-03-0.931D-04 0.346D-01 0.206D+00 0.760D+00
 Gap=     0.153 Goal=   None    Shift=    0.000
 RMSDP=6.18D-06 MaxDP=1.31D-04 DE=-2.03D-06 OVMax= 1.29D-04

 Cycle   7  Pass 1  IDiag  1:
 RMSU=  5.37D-06    CP:  1.02D+00  1.97D-01  1.04D+00  9.35D-01  9.44D-01
                    CP:  8.69D-01
 E= -193.534712321079     Delta-E=       -0.000000002136 Rises=F Damp=F
 DIIS: error= 2.05D-05 at cycle   7 NSaved=   7.
 NSaved= 7 IEnMin= 7 EnMin= -193.534712321079     IErMin= 6 ErrMin= 1.98D-05
 ErrMax= 2.05D-05  0.00D+00 EMaxC= 1.00D-01 BMatC= 2.08D-08 BMatP= 2.24D-08
 IDIUse=1 WtCom= 1.00D+00 WtEn= 0.00D+00
 Coeff-Com:  0.236D-04-0.696D-04-0.123D-03-0.184D-03-0.771D-02 0.504D+00
 Coeff-Com:  0.504D+00
 Coeff:      0.236D-04-0.696D-04-0.123D-03-0.184D-03-0.771D-02 0.504D+00
 Coeff:      0.504D+00
 Gap=     0.153 Goal=   None    Shift=    0.000
 RMSDP=3.46D-06 MaxDP=7.65D-05 DE=-2.14D-09 OVMax= 7.14D-05

 Cycle   8  Pass 1  IDiag  1:
 RMSU=  7.89D-07    CP:  1.02D+00  1.97D-01  1.04D+00  9.35D-01  9.43D-01
                    CP:  9.85D-01  4.46D-01
 E= -193.534712342508     Delta-E=       -0.000000021429 Rises=F Damp=F
 DIIS: error= 2.90D-06 at cycle   8 NSaved=   8.
 NSaved= 8 IEnMin= 8 EnMin= -193.534712342508     IErMin= 8 ErrMin= 2.90D-06
 ErrMax= 2.90D-06  0.00D+00 EMaxC= 1.00D-01 BMatC= 4.49D-10 BMatP= 2.08D-08
 IDIUse=1 WtCom= 1.00D+00 WtEn= 0.00D+00
 Coeff-Com:  0.135D-04-0.422D-04-0.552D-04-0.572D-03-0.775D-02 0.290D+00
 Coeff-Com:  0.301D+00 0.418D+00
 Coeff:      0.135D-04-0.422D-04-0.552D-04-0.572D-03-0.775D-02 0.290D+00
 Coeff:      0.301D+00 0.418D+00
 Gap=     0.153 Goal=   None    Shift=    0.000
 RMSDP=5.19D-07 MaxDP=1.22D-05 DE=-2.14D-08 OVMax= 1.10D-05

 Cycle   9  Pass 1  IDiag  1:
 RMSU=  2.30D-07    CP:  1.02D+00  1.97D-01  1.04D+00  9.35D-01  9.43D-01
                    CP:  9.75D-01  5.18D-01  7.59D-01
 E= -193.534712342974     Delta-E=       -0.000000000466 Rises=F Damp=F
 DIIS: error= 5.62D-07 at cycle   9 NSaved=   9.
 NSaved= 9 IEnMin= 9 EnMin= -193.534712342974     IErMin= 9 ErrMin= 5.62D-07
 ErrMax= 5.62D-07  0.00D+00 EMaxC= 1.00D-01 BMatC= 1.97D-11 BMatP= 4.49D-10
 IDIUse=1 WtCom= 1.00D+00 WtEn= 0.00D+00
 Coeff-Com:  0.338D-05-0.660D-05 0.247D-04-0.608D-04-0.819D-03-0.319D-02
 Coeff-Com: -0.254D-03 0.105D+00 0.899D+00
 Coeff:      0.338D-05-0.660D-05 0.247D-04-0.608D-04-0.819D-03-0.319D-02
 Coeff:     -0.254D-03 0.105D+00 0.899D+00
 Gap=     0.153 Goal=   None    Shift=    0.000
 RMSDP=1.78D-07 MaxDP=3.89D-06 DE=-4.66D-10 OVMax= 1.88D-06

 Cycle  10  Pass 1  IDiag  1:
 RMSU=  1.75D-08    CP:  1.02D+00  1.97D-01  1.04D+00  9.35D-01  9.43D-01
                    CP:  9.77D-01  5.14D-01  8.10D-01  9.50D-01
 E= -193.534712342998     Delta-E=       -0.000000000024 Rises=F Damp=F
 DIIS: error= 8.92D-08 at cycle  10 NSaved=  10.
 NSaved=10 IEnMin=10 EnMin= -193.534712342998     IErMin=10 ErrMin= 8.92D-08
 ErrMax= 8.92D-08  0.00D+00 EMaxC= 1.00D-01 BMatC= 4.40D-13 BMatP= 1.97D-11
 IDIUse=1 WtCom= 1.00D+00 WtEn= 0.00D+00
 Coeff-Com:  0.748D-06-0.663D-06 0.552D-05 0.119D-04 0.189D-04-0.319D-02
 Coeff-Com: -0.319D-02-0.117D-02 0.267D-01 0.981D+00
 Coeff:      0.748D-06-0.663D-06 0.552D-05 0.119D-04 0.189D-04-0.319D-02
 Coeff:     -0.319D-02-0.117D-02 0.267D-01 0.981D+00
 Gap=     0.153 Goal=   None    Shift=    0.000
 RMSDP=2.69D-08 MaxDP=5.27D-07 DE=-2.41D-11 OVMax= 2.53D-07

 Cycle  11  Pass 1  IDiag  1:
 RMSU=  1.21D-09    CP:  1.02D+00  1.97D-01  1.04D+00  9.35D-01  9.43D-01
                    CP:  9.77D-01  5.14D-01  8.14D-01  9.61D-01  1.08D+00
 E= -193.534712342999     Delta-E=       -0.000000000001 Rises=F Damp=F
 DIIS: error= 1.00D-08 at cycle  11 NSaved=  11.
 NSaved=11 IEnMin=11 EnMin= -193.534712342999     IErMin=11 ErrMin= 1.00D-08
 ErrMax= 1.00D-08  0.00D+00 EMaxC= 1.00D-01 BMatC= 6.19D-15 BMatP= 4.40D-13
 IDIUse=1 WtCom= 1.00D+00 WtEn= 0.00D+00
 Coeff-Com:  0.288D-07-0.378D-07-0.248D-06 0.106D-05 0.771D-05 0.308D-03
 Coeff-Com:  0.278D-03-0.814D-03-0.102D-01-0.700D-01 0.108D+01
 Coeff:      0.288D-07-0.378D-07-0.248D-06 0.106D-05 0.771D-05 0.308D-03
 Coeff:      0.278D-03-0.814D-03-0.102D-01-0.700D-01 0.108D+01
 Gap=     0.153 Goal=   None    Shift=    0.000
 RMSDP=3.23D-09 MaxDP=6.92D-08 DE=-9.09D-13 OVMax= 2.74D-08

 SCF Done:  E(RB3LYP) =  -193.534712343     A.U. after   11 cycles
            NFock= 11  Conv=0.32D-08     -V/T= 2.0101
 KE= 1.915924874092D+02 PE=-7.529297910753D+02 EE= 2.189756728611D+02
 Leave Link  502 at Sun Aug  6 04:27:40 2023, MaxMem= 64424509440 cpu:             101.8 elap:               1.4
 (Enter /sob/g16/l801.exe)
 DoSCS=F DFT=T ScalE2(SS,OS)=  1.000000  1.000000
 Range of M.O.s used for correlation:     1   105
 NBasis=   105 NAE=    18 NBE=    18 NFC=     0 NFV=     0
 NROrb=    105 NOA=    18 NOB=    18 NVA=    87 NVB=    87

 **** Warning!!: The largest alpha MO coefficient is  0.79094292D+02

 Leave Link  801 at Sun Aug  6 04:27:40 2023, MaxMem= 64424509440 cpu:               1.5 elap:               0.0
 (Enter /sob/g16/l1002.exe)
 Minotr:  Closed shell wavefunction.
          Direct CPHF calculation.
          Differentiating once with respect to magnetic field.
          Electric field/nuclear overlap derivatives assumed to be zero.
          Requested convergence is 1.0D-08 RMS, and 1.0D-07 maximum.
          Secondary convergence is 1.0D-12 RMS, and 1.0D-12 maximum.
          NewPWx=T KeepS1=F KeepF1=F KeepIn=T MapXYZ=F SortEE=F KeepMc=T.
         4341 words used for storage of precomputed grid.
 Two-electron integral symmetry not used.
          MDV=   64424509440 using IRadAn=       1.
          Solving linear equations simultaneously, MaxMat=      96.
          There are     6 degrees of freedom in the 1st order CPHF.  IDoFFX=0 NUNeed=     6.
      6 vectors produced by pass  0 Test12= 2.61D-14 1.67D-08 XBig12= 4.97D+01 3.95D+00.
 AX will form     6 AO Fock derivatives at one time.
 FoFJK:  IHMeth= 1 ICntrl=       0 DoSepK=F KAlg= 0 I1Cent=           0 FoldK=F
 IRaf= 990000000 NMat=       6 IRICut=       1 DoRegI=T DoRafI=F ISym2E= 0 IDoP0=0 IntGTp=1.
 FoFCou: FMM=T IPFlag=           0 FMFlag=      100000 FMFlg1=        2001
         NFxFlg=           0 DoJE=F BraDBF=F KetDBF=F FulRan=T
         wScrn=  0.000000 ICntrl=         0 IOpCl=  0 I1Cent=           0 NGrid=           0
         NMat0=    6 NMatS0=      0 NMatT0=    0 NMatD0=    6 NMtDS0=    0 NMtDT0=    0
 Symmetry not used in FoFCou.
 FMM levels:  10  Number of levels for PrismC:   7
      6 vectors produced by pass  1 Test12= 2.61D-14 1.67D-08 XBig12= 7.53D-02 1.35D-01.
      6 vectors produced by pass  2 Test12= 2.61D-14 1.67D-08 XBig12= 2.19D-04 1.08D-02.
      6 vectors produced by pass  3 Test12= 2.61D-14 1.67D-08 XBig12= 7.61D-07 3.21D-04.
      6 vectors produced by pass  4 Test12= 2.61D-14 1.67D-08 XBig12= 1.38D-09 1.30D-05.
      6 vectors produced by pass  5 Test12= 2.61D-14 1.67D-08 XBig12= 2.58D-12 5.22D-07.
      2 vectors produced by pass  6 Test12= 2.61D-14 1.67D-08 XBig12= 3.77D-15 2.14D-08.
 InvSVY:  IOpt=1 It=  1 EMax= 1.78D-15
 Solved reduced A of dimension    38 with     6 vectors.
 Calculating magnetic properties, IRadAn=         5.
 Writing AICD formatted file "AICD.txt"
 CSGT:  Occupy MOs     1     2     3     4     5     6     7     8     9    10
 CSGT:  Occupy MOs    11    12    13    14    15
 There are a total of      226860 grid points.
 ElSum from         orbitals=      305.5034299710

     Magnetic properties (CSGT method)

 Magnetic susceptibility (cgs-ppm):
   Isotropic =   -23.3347   Anisotropy=    14.1948
   XX=   -13.8784   YX=    -0.0000   ZX=     0.0000
   XY=    -0.0000   YY=   -13.8715   ZY=    -0.0000
   XZ=     0.0000   YZ=    -0.0000   ZZ=   -42.2542
   Eigenvalues:   -42.2542   -13.8784   -13.8715
 Magnetic shielding (ppm):
      1  C    Isotropic =   103.5683   Anisotropy =    57.1686
   XX=   101.8470   YX=    -0.0000   ZX=     0.0000
   XY=    -0.0000   YY=    67.1771   ZY=     0.0000
   XZ=    -0.0000   YZ=     0.0000   ZZ=   141.6807
   Eigenvalues:    67.1771   101.8470   141.6807
      2  C    Isotropic =   103.5875   Anisotropy =    57.1833
   XX=    70.5667   YX=   -10.1672   ZX=    -0.0000
   XY=   -10.1489   YY=    98.4861   ZY=    -0.0000
   XZ=    -0.0000   YZ=    -0.0000   ZZ=   141.7097
   Eigenvalues:    67.2620   101.7908   141.7097
      3  H    Isotropic =    24.6970   Anisotropy =     1.8188
   XX=    24.5571   YX=     0.3386   ZX=    -0.0000
   XY=     0.3394   YY=    23.6244   ZY=    -0.0000
   XZ=    -0.0000   YZ=    -0.0000   ZZ=    25.9095
   Eigenvalues:    23.5142    24.6673    25.9095
      4  C    Isotropic =   103.5495   Anisotropy =    57.1161
   XX=    89.8951   YX=    16.4842   ZX=    -0.0000
   XY=    16.4784   YY=    79.1265   ZY=     0.0000
[...]
   XZ=     0.0000   YZ=     0.0000   ZZ=     0.1295
   Eigenvalues:     0.0003     0.0003     0.1295
 Current density tensor (au):
   XX=     0.0000   YX=    -0.0000   ZX=     0.0004
   XY=    -0.0000   YY=    -0.0000   ZY=    -0.0000
   XZ=     0.0001   YZ=    -0.0000   ZZ=    -0.0000
 End of Minotr F.D. properties file   721 does not exist.
 End of Minotr F.D. properties file   722 does not exist.
 End of Minotr F.D. properties file   788 does not exist.
 Leave Link 1002 at Sun Aug  6 04:28:09 2023, MaxMem= 64424509440 cpu:             291.3 elap:              29.0
 (Enter /sob/g16/l601.exe)
 Copying SCF densities to generalized density rwf, IOpCl= 0 IROHF=0.
 Hyperfine terms turned off by default for NAtoms > 100.

 **********************************************************************

            Population analysis using the SCF Density.

 **********************************************************************

 Alpha  occ. eigenvalues --   -9.96859  -9.96828  -9.96824  -9.96772  -9.96769
 Alpha  occ. eigenvalues --   -0.63876  -0.48010  -0.48008  -0.32689  -0.32684
 Alpha  occ. eigenvalues --   -0.31069  -0.17867  -0.17864  -0.15900  -0.15895
 Alpha  occ. eigenvalues --   -0.14462   0.00532   0.00536
 Alpha virt. eigenvalues --    0.15795   0.16225   0.16226   0.17381   0.17381
 Alpha virt. eigenvalues --    0.21684   0.22784   0.22785   0.23890   0.23890
 Alpha virt. eigenvalues --    0.24207   0.24207   0.25775   0.28036   0.28036
 Alpha virt. eigenvalues --    0.32377   0.32378   0.32795   0.32797   0.33603
 Alpha virt. eigenvalues --    0.35298   0.35299   0.38055   0.43597   0.43613
 Alpha virt. eigenvalues --    0.45247   0.45254   0.48436   0.48445   0.63311
 Alpha virt. eigenvalues --    0.63317   0.66944   0.86974   0.88889   0.91909
 Alpha virt. eigenvalues --    0.91912   0.92905   0.92909   0.94338   0.94347
 Alpha virt. eigenvalues --    0.95538   0.95539   1.07173   1.10522   1.10544
 Alpha virt. eigenvalues --    1.10750   1.10761   1.10974   1.20706   1.26049
 Alpha virt. eigenvalues --    1.26054   1.39566   1.39605   1.40661   1.40662
 Alpha virt. eigenvalues --    1.58540   1.59930   1.59933   1.68566   1.68589
 Alpha virt. eigenvalues --    1.76092   1.76097   1.93819   2.06383   2.21957
 Alpha virt. eigenvalues --    2.21964   2.24823   2.24838   2.43174   2.43201
 Alpha virt. eigenvalues --    2.47678   2.47688   2.53078   2.53082   2.73151
 Alpha virt. eigenvalues --    2.84474   2.84487   2.90957   2.90969   3.17851
 Alpha virt. eigenvalues --    3.17896   3.19672   4.43922   4.45269   4.45273
 Alpha virt. eigenvalues --    4.71030   4.71035
          Condensed to atoms (all electrons):
 Mulliken charges:
               1
     1  C   -0.299521
     2  C   -0.301413
     3  H    0.100524
     4  C   -0.300116
     5  H    0.100511
     6  C   -0.301413
     7  H    0.100524
     8  C   -0.300116
     9  H    0.100511
    10  H    0.100509
    11  Bq   0.000000
    12  Bq   0.000000
    13  Bq   0.000000
    14  Bq   0.000000
    15  Bq   0.000000
    16  Bq   0.000000
    17  Bq   0.000000
    18  Bq   0.000000
    19  Bq   0.000000
    20  Bq   0.000000
    21  Bq   0.000000
    22  Bq   0.000000
    23  Bq   0.000000
    24  Bq   0.000000
    25  Bq   0.000000
    26  Bq   0.000000
    27  Bq   0.000000
    28  Bq   0.000000
    29  Bq   0.000000
    30  Bq   0.000000
    31  Bq   0.000000
    32  Bq   0.000000
    33  Bq   0.000000
    34  Bq   0.000000
    35  Bq   0.000000
    36  Bq   0.000000
    37  Bq   0.000000
    38  Bq   0.000000
    39  Bq   0.000000
    40  Bq   0.000000
    41  Bq   0.000000
    42  Bq   0.000000
    43  Bq   0.000000
    44  Bq   0.000000
    45  Bq   0.000000
    46  Bq   0.000000
    47  Bq   0.000000
    48  Bq   0.000000
    49  Bq   0.000000
    50  Bq   0.000000
    51  Bq   0.000000
    52  Bq   0.000000
    53  Bq   0.000000
    54  Bq   0.000000
    55  Bq   0.000000
    56  Bq   0.000000
    57  Bq   0.000000
    58  Bq   0.000000
    59  Bq   0.000000
    60  Bq   0.000000
    61  Bq   0.000000
    62  Bq   0.000000
    63  Bq   0.000000
    64  Bq   0.000000
    65  Bq   0.000000
    66  Bq   0.000000
    67  Bq   0.000000
    68  Bq   0.000000
    69  Bq   0.000000
    70  Bq   0.000000
    71  Bq   0.000000
    72  Bq   0.000000
    73  Bq   0.000000
    74  Bq   0.000000
    75  Bq   0.000000
    76  Bq   0.000000
    77  Bq   0.000000
    78  Bq   0.000000
    79  Bq   0.000000
    80  Bq   0.000000
    81  Bq   0.000000
    82  Bq   0.000000
    83  Bq   0.000000
    84  Bq   0.000000
    85  Bq   0.000000
    86  Bq   0.000000
    87  Bq   0.000000
    88  Bq   0.000000
    89  Bq   0.000000
    90  Bq   0.000000
    91  Bq   0.000000
    92  Bq   0.000000
    93  Bq   0.000000
    94  Bq   0.000000
    95  Bq   0.000000
    96  Bq   0.000000
    97  Bq   0.000000
    98  Bq   0.000000
    99  Bq   0.000000
   100  Bq   0.000000
   101  Bq   0.000000
   102  Bq   0.000000
   103  Bq   0.000000
   104  Bq   0.000000
   105  Bq   0.000000
   106  Bq   0.000000
   107  Bq   0.000000
   108  Bq   0.000000
   109  Bq   0.000000
   110  Bq   0.000000
   111  Bq   0.000000
   112  Bq   0.000000
   113  Bq   0.000000
   114  Bq   0.000000
   115  Bq   0.000000
   116  Bq   0.000000
   117  Bq   0.000000
   118  Bq   0.000000
   119  Bq   0.000000
   120  Bq   0.000000
   121  Bq   0.000000
   122  Bq   0.000000
   123  Bq   0.000000
   124  Bq   0.000000
   125  Bq   0.000000
   126  Bq   0.000000
   127  Bq   0.000000
   128  Bq   0.000000
   129  Bq   0.000000
   130  Bq   0.000000
   131  Bq   0.000000
   132  Bq   0.000000
   133  Bq   0.000000
   134  Bq   0.000000
   135  Bq   0.000000
   136  Bq   0.000000
   137  Bq   0.000000
   138  Bq   0.000000
   139  Bq   0.000000
   140  Bq   0.000000
   141  Bq   0.000000
   142  Bq   0.000000
   143  Bq   0.000000
   144  Bq   0.000000
   145  Bq   0.000000
   146  Bq   0.000000
   147  Bq   0.000000
   148  Bq   0.000000
   149  Bq   0.000000
   150  Bq   0.000000
   151  Bq   0.000000
   152  Bq   0.000000
   153  Bq   0.000000
   154  Bq   0.000000
   155  Bq   0.000000
   156  Bq   0.000000
   157  Bq   0.000000
   158  Bq   0.000000
   159  Bq   0.000000
   160  Bq   0.000000
   161  Bq   0.000000
   162  Bq   0.000000
   163  Bq   0.000000
   164  Bq   0.000000
   165  Bq   0.000000
   166  Bq   0.000000
   167  Bq   0.000000
   168  Bq   0.000000
   169  Bq   0.000000
   170  Bq   0.000000
   171  Bq   0.000000
   172  Bq   0.000000
   173  Bq   0.000000
   174  Bq   0.000000
   175  Bq   0.000000
   176  Bq   0.000000
   177  Bq   0.000000
   178  Bq   0.000000
   179  Bq   0.000000
   180  Bq   0.000000
   181  Bq   0.000000
   182  Bq   0.000000
   183  Bq   0.000000
   184  Bq   0.000000
   185  Bq   0.000000
   186  Bq   0.000000
   187  Bq   0.000000
   188  Bq   0.000000
   189  Bq   0.000000
   190  Bq   0.000000
   191  Bq   0.000000
   192  Bq   0.000000
   193  Bq   0.000000
   194  Bq   0.000000
   195  Bq   0.000000
   196  Bq   0.000000
   197  Bq   0.000000
   198  Bq   0.000000
   199  Bq   0.000000
   200  Bq   0.000000
   201  Bq   0.000000
   202  Bq   0.000000
   203  Bq   0.000000
   204  Bq   0.000000
   205  Bq   0.000000
   206  Bq   0.000000
   207  Bq   0.000000
   208  Bq   0.000000
   209  Bq   0.000000
   210  Bq   0.000000
 Sum of Mulliken charges =  -1.00000
 Mulliken charges with hydrogens summed into heavy atoms:
               1
     1  C   -0.199012
     2  C   -0.200889
     4  C   -0.199605
     6  C   -0.200889
     8  C   -0.199605
    11  Bq   0.000000
    12  Bq   0.000000
    13  Bq   0.000000
    14  Bq   0.000000
    15  Bq   0.000000
    16  Bq   0.000000
    17  Bq   0.000000
    18  Bq   0.000000
    19  Bq   0.000000
    20  Bq   0.000000
    21  Bq   0.000000
    22  Bq   0.000000
    23  Bq   0.000000
    24  Bq   0.000000
    25  Bq   0.000000
    26  Bq   0.000000
    27  Bq   0.000000
    28  Bq   0.000000
    29  Bq   0.000000
    30  Bq   0.000000
    31  Bq   0.000000
    32  Bq   0.000000
    33  Bq   0.000000
    34  Bq   0.000000
    35  Bq   0.000000
    36  Bq   0.000000
    37  Bq   0.000000
    38  Bq   0.000000
    39  Bq   0.000000
    40  Bq   0.000000
    41  Bq   0.000000
    42  Bq   0.000000
    43  Bq   0.000000
    44  Bq   0.000000
    45  Bq   0.000000
    46  Bq   0.000000
    47  Bq   0.000000
    48  Bq   0.000000
    49  Bq   0.000000
    50  Bq   0.000000
    51  Bq   0.000000
    52  Bq   0.000000
    53  Bq   0.000000
    54  Bq   0.000000
    55  Bq   0.000000
    56  Bq   0.000000
    57  Bq   0.000000
    58  Bq   0.000000
    59  Bq   0.000000
    60  Bq   0.000000
    61  Bq   0.000000
    62  Bq   0.000000
    63  Bq   0.000000
    64  Bq   0.000000
    65  Bq   0.000000
    66  Bq   0.000000
    67  Bq   0.000000
    68  Bq   0.000000
    69  Bq   0.000000
    70  Bq   0.000000
    71  Bq   0.000000
    72  Bq   0.000000
    73  Bq   0.000000
    74  Bq   0.000000
    75  Bq   0.000000
    76  Bq   0.000000
    77  Bq   0.000000
    78  Bq   0.000000
    79  Bq   0.000000
    80  Bq   0.000000
    81  Bq   0.000000
    82  Bq   0.000000
    83  Bq   0.000000
    84  Bq   0.000000
    85  Bq   0.000000
    86  Bq   0.000000
    87  Bq   0.000000
    88  Bq   0.000000
    89  Bq   0.000000
    90  Bq   0.000000
    91  Bq   0.000000
    92  Bq   0.000000
    93  Bq   0.000000
    94  Bq   0.000000
    95  Bq   0.000000
    96  Bq   0.000000
    97  Bq   0.000000
    98  Bq   0.000000
    99  Bq   0.000000
   100  Bq   0.000000
   101  Bq   0.000000
   102  Bq   0.000000
   103  Bq   0.000000
   104  Bq   0.000000
   105  Bq   0.000000
   106  Bq   0.000000
   107  Bq   0.000000
   108  Bq   0.000000
   109  Bq   0.000000
   110  Bq   0.000000
   111  Bq   0.000000
   112  Bq   0.000000
   113  Bq   0.000000
   114  Bq   0.000000
   115  Bq   0.000000
   116  Bq   0.000000
   117  Bq   0.000000
   118  Bq   0.000000
   119  Bq   0.000000
   120  Bq   0.000000
   121  Bq   0.000000
   122  Bq   0.000000
   123  Bq   0.000000
   124  Bq   0.000000
   125  Bq   0.000000
   126  Bq   0.000000
   127  Bq   0.000000
   128  Bq   0.000000
   129  Bq   0.000000
   130  Bq   0.000000
   131  Bq   0.000000
   132  Bq   0.000000
   133  Bq   0.000000
   134  Bq   0.000000
   135  Bq   0.000000
   136  Bq   0.000000
   137  Bq   0.000000
   138  Bq   0.000000
   139  Bq   0.000000
   140  Bq   0.000000
   141  Bq   0.000000
   142  Bq   0.000000
   143  Bq   0.000000
   144  Bq   0.000000
   145  Bq   0.000000
   146  Bq   0.000000
   147  Bq   0.000000
   148  Bq   0.000000
   149  Bq   0.000000
   150  Bq   0.000000
   151  Bq   0.000000
   152  Bq   0.000000
   153  Bq   0.000000
   154  Bq   0.000000
   155  Bq   0.000000
   156  Bq   0.000000
   157  Bq   0.000000
   158  Bq   0.000000
   159  Bq   0.000000
   160  Bq   0.000000
   161  Bq   0.000000
   162  Bq   0.000000
   163  Bq   0.000000
   164  Bq   0.000000
   165  Bq   0.000000
   166  Bq   0.000000
   167  Bq   0.000000
   168  Bq   0.000000
   169  Bq   0.000000
   170  Bq   0.000000
   171  Bq   0.000000
   172  Bq   0.000000
   173  Bq   0.000000
   174  Bq   0.000000
   175  Bq   0.000000
   176  Bq   0.000000
   177  Bq   0.000000
   178  Bq   0.000000
   179  Bq   0.000000
   180  Bq   0.000000
   181  Bq   0.000000
   182  Bq   0.000000
   183  Bq   0.000000
   184  Bq   0.000000
   185  Bq   0.000000
   186  Bq   0.000000
   187  Bq   0.000000
   188  Bq   0.000000
   189  Bq   0.000000
   190  Bq   0.000000
   191  Bq   0.000000
   192  Bq   0.000000
   193  Bq   0.000000
   194  Bq   0.000000
   195  Bq   0.000000
   196  Bq   0.000000
   197  Bq   0.000000
   198  Bq   0.000000
   199  Bq   0.000000
   200  Bq   0.000000
   201  Bq   0.000000
   202  Bq   0.000000
   203  Bq   0.000000
   204  Bq   0.000000
   205  Bq   0.000000
   206  Bq   0.000000
   207  Bq   0.000000
   208  Bq   0.000000
   209  Bq   0.000000
   210  Bq   0.000000
 Electronic spatial extent (au):  <R**2>=            338.3204
 Charge=             -1.0000 electrons
 Dipole moment (field-independent basis, Debye):
    X=             -0.0000    Y=              0.0003    Z=              0.0000  Tot=              0.0003
 Quadrupole moment (field-independent basis, Debye-Ang):
   XX=            -39.0836   YY=            -39.0839   ZZ=            -42.0410
   XY=              0.0000   XZ=             -0.0000   YZ=             -0.0000
 Traceless Quadrupole moment (field-independent basis, Debye-Ang):
   XX=              0.9859   YY=              0.9856   ZZ=             -1.9715
   XY=              0.0000   XZ=             -0.0000   YZ=             -0.0000
 Octapole moment (field-independent basis, Debye-Ang**2):
  XXX=             -0.0000  YYY=             -0.0151  ZZZ=             -0.0000  XYY=             -0.0000
  XXY=              0.0009  XXZ=              0.0000  XZZ=              0.0000  YZZ=             -0.0037
  YYZ=             -0.0000  XYZ=              0.0000
 Hexadecapole moment (field-independent basis, Debye-Ang**3):
 XXXX=           -261.2377 YYYY=           -261.3329 ZZZZ=            -82.7280 XXXY=              0.0000
 XXXZ=             -0.0000 YYYX=              0.0000 YYYZ=             -0.0000 ZZZX=             -0.0000
 ZZZY=             -0.0000 XXYY=            -87.0993 XXZZ=            -67.1073 YYZZ=            -67.1189
 XXYZ=             -0.0000 YYXZ=             -0.0000 ZZXY=              0.0000
 N-N= 1.488269184620D+02 E-N=-7.529297924381D+02  KE= 1.915924874092D+02
 Leave Link  601 at Sun Aug  6 04:28:09 2023, MaxMem= 64424509440 cpu:               1.7 elap:               0.1
 (Enter /sob/g16/l9999.exe)

 Test job not archived.
 1\1\GINC-7R32\SP\RB3LYP\6-31+G(d)\C5H5(1-)\ROOT\06-Aug-2023\0\\#p b3ly
 p/6-31+G* nmr=csgt iop(10/93=2) geom=connectivity\\template file\\-1,1
 \C,0,0.,1.203,0.\C,0,1.144,0.372,0.\H,0,2.181,0.709,0.\C,0,0.707,-0.97
 3,0.\H,0,1.348,-1.856,0.\C,0,-1.144,0.372,0.\H,0,-2.181,0.709,0.\C,0,-
 0.707,-0.973,0.\H,0,-1.348,-1.856,0.\H,0,0.,2.294,0.\Bq,0,0.,0.000378,
 -10.\Bq,0,0.,0.000378,-9.899497\Bq,0,0.,0.000378,-9.798995\Bq,0,0.,0.0
 00378,-9.698492\Bq,0,0.,0.000378,-9.59799\Bq,0,0.,0.000378,-9.497487\B
 q,0,0.,0.000378,-9.396985\Bq,0,0.,0.000378,-9.296482\Bq,0,0.,0.000378,
 -9.19598\Bq,0,0.,0.000378,-9.095477\Bq,0,0.,0.000378,-8.994975\Bq,0,0.
 ,0.000378,-8.894472\Bq,0,0.,0.000378,-8.79397\Bq,0,0.,0.000378,-8.6934
 67\Bq,0,0.,0.000378,-8.592965\Bq,0,0.,0.000378,-8.492462\Bq,0,0.,0.000
 378,-8.39196\Bq,0,0.,0.000378,-8.291457\Bq,0,0.,0.000378,-8.190955\Bq,
 0,0.,0.000378,-8.090452\Bq,0,0.,0.000378,-7.98995\Bq,0,0.,0.000378,-7.
 889447\Bq,0,0.,0.000378,-7.788945\Bq,0,0.,0.000378,-7.688442\Bq,0,0.,0
 .000378,-7.58794\Bq,0,0.,0.000378,-7.487437\Bq,0,0.,0.000378,-7.386935
 \Bq,0,0.,0.000378,-7.286432\Bq,0,0.,0.000378,-7.18593\Bq,0,0.,0.000378
 ,-7.085427\Bq,0,0.,0.000378,-6.984925\Bq,0,0.,0.000378,-6.884422\Bq,0,
 0.,0.000378,-6.78392\Bq,0,0.,0.000378,-6.683417\Bq,0,0.,0.000378,-6.58
 2915\Bq,0,0.,0.000378,-6.482412\Bq,0,0.,0.000378,-6.38191\Bq,0,0.,0.00
 0378,-6.281407\Bq,0,0.,0.000378,-6.180905\Bq,0,0.,0.000378,-6.080402\B
 q,0,0.,0.000378,-5.979899\Bq,0,0.,0.000378,-5.879397\Bq,0,0.,0.000378,
 -5.778894\Bq,0,0.,0.000378,-5.678392\Bq,0,0.,0.000378,-5.577889\Bq,0,0
 .,0.000378,-5.477387\Bq,0,0.,0.000378,-5.376884\Bq,0,0.,0.000378,-5.27
 6382\Bq,0,0.,0.000378,-5.175879\Bq,0,0.,0.000378,-5.075377\Bq,0,0.,0.0
 00378,-4.974874\Bq,0,0.,0.000378,-4.874372\Bq,0,0.,0.000378,-4.773869\
 Bq,0,0.,0.000378,-4.673367\Bq,0,0.,0.000378,-4.572864\Bq,0,0.,0.000378
 ,-4.472362\Bq,0,0.,0.000378,-4.371859\Bq,0,0.,0.000378,-4.271357\Bq,0,
 0.,0.000378,-4.170854\Bq,0,0.,0.000378,-4.070352\Bq,0,0.,0.000378,-3.9
 69849\Bq,0,0.,0.000378,-3.869347\Bq,0,0.,0.000378,-3.768844\Bq,0,0.,0.
 000378,-3.668342\Bq,0,0.,0.000378,-3.567839\Bq,0,0.,0.000378,-3.467337
 \Bq,0,0.,0.000378,-3.366834\Bq,0,0.,0.000378,-3.266332\Bq,0,0.,0.00037
 8,-3.165829\Bq,0,0.,0.000378,-3.065327\Bq,0,0.,0.000378,-2.964824\Bq,0
 ,0.,0.000378,-2.864322\Bq,0,0.,0.000378,-2.763819\Bq,0,0.,0.000378,-2.
 663317\Bq,0,0.,0.000378,-2.562814\Bq,0,0.,0.000378,-2.462312\Bq,0,0.,0
 .000378,-2.361809\Bq,0,0.,0.000378,-2.261307\Bq,0,0.,0.000378,-2.16080
 4\Bq,0,0.,0.000378,-2.060302\Bq,0,0.,0.000378,-1.959799\Bq,0,0.,0.0003
 78,-1.859296\Bq,0,0.,0.000378,-1.758794\Bq,0,0.,0.000378,-1.658291\Bq,
 0,0.,0.000378,-1.557789\Bq,0,0.,0.000378,-1.457286\Bq,0,0.,0.000378,-1
 .356784\Bq,0,0.,0.000378,-1.256281\Bq,0,0.,0.000378,-1.155779\Bq,0,0.,
 0.000378,-1.055276\Bq,0,0.,0.000378,-0.954774\Bq,0,0.,0.000378,-0.8542
 71\Bq,0,0.,0.000378,-0.753769\Bq,0,0.,0.000378,-0.653266\Bq,0,0.,0.000
 378,-0.552764\Bq,0,0.,0.000378,-0.452261\Bq,0,0.,0.000378,-0.351759\Bq
 ,0,0.,0.000378,-0.251256\Bq,0,0.,0.000378,-0.150754\Bq,0,0.,0.000378,-
 0.050251\Bq,0,0.,0.000378,0.050251\Bq,0,0.,0.000378,0.150754\Bq,0,0.,0
 .000378,0.251256\Bq,0,0.,0.000378,0.351759\Bq,0,0.,0.000378,0.452261\B
 q,0,0.,0.000378,0.552764\Bq,0,0.,0.000378,0.653266\Bq,0,0.,0.000378,0.
 753769\Bq,0,0.,0.000378,0.854271\Bq,0,0.,0.000378,0.954774\Bq,0,0.,0.0
 00378,1.055276\Bq,0,0.,0.000378,1.155779\Bq,0,0.,0.000378,1.256281\Bq,
 0,0.,0.000378,1.356784\Bq,0,0.,0.000378,1.457286\Bq,0,0.,0.000378,1.55
 7789\Bq,0,0.,0.000378,1.658291\Bq,0,0.,0.000378,1.758794\Bq,0,0.,0.000
 378,1.859296\Bq,0,0.,0.000378,1.959799\Bq,0,0.,0.000378,2.060302\Bq,0,
 0.,0.000378,2.160804\Bq,0,0.,0.000378,2.261307\Bq,0,0.,0.000378,2.3618
 09\Bq,0,0.,0.000378,2.462312\Bq,0,0.,0.000378,2.562814\Bq,0,0.,0.00037
 8,2.663317\Bq,0,0.,0.000378,2.763819\Bq,0,0.,0.000378,2.864322\Bq,0,0.
 ,0.000378,2.964824\Bq,0,0.,0.000378,3.065327\Bq,0,0.,0.000378,3.165829
 \Bq,0,0.,0.000378,3.266332\Bq,0,0.,0.000378,3.366834\Bq,0,0.,0.000378,
 3.467337\Bq,0,0.,0.000378,3.567839\Bq,0,0.,0.000378,3.668342\Bq,0,0.,0
 .000378,3.768844\Bq,0,0.,0.000378,3.869347\Bq,0,0.,0.000378,3.969849\B
 q,0,0.,0.000378,4.070352\Bq,0,0.,0.000378,4.170854\Bq,0,0.,0.000378,4.
 271357\Bq,0,0.,0.000378,4.371859\Bq,0,0.,0.000378,4.472362\Bq,0,0.,0.0
 00378,4.572864\Bq,0,0.,0.000378,4.673367\Bq,0,0.,0.000378,4.773869\Bq,
 0,0.,0.000378,4.874372\Bq,0,0.,0.000378,4.974874\Bq,0,0.,0.000378,5.07
 5377\Bq,0,0.,0.000378,5.175879\Bq,0,0.,0.000378,5.276382\Bq,0,0.,0.000
 378,5.376884\Bq,0,0.,0.000378,5.477387\Bq,0,0.,0.000378,5.577889\Bq,0,
 0.,0.000378,5.678392\Bq,0,0.,0.000378,5.778894\Bq,0,0.,0.000378,5.8793
 97\Bq,0,0.,0.000378,5.979899\Bq,0,0.,0.000378,6.080402\Bq,0,0.,0.00037
 8,6.180905\Bq,0,0.,0.000378,6.281407\Bq,0,0.,0.000378,6.38191\Bq,0,0.,
 0.000378,6.482412\Bq,0,0.,0.000378,6.582915\Bq,0,0.,0.000378,6.683417\
 Bq,0,0.,0.000378,6.78392\Bq,0,0.,0.000378,6.884422\Bq,0,0.,0.000378,6.
 984925\Bq,0,0.,0.000378,7.085427\Bq,0,0.,0.000378,7.18593\Bq,0,0.,0.00
 0378,7.286432\Bq,0,0.,0.000378,7.386935\Bq,0,0.,0.000378,7.487437\Bq,0
 ,0.,0.000378,7.58794\Bq,0,0.,0.000378,7.688442\Bq,0,0.,0.000378,7.7889
 45\Bq,0,0.,0.000378,7.889447\Bq,0,0.,0.000378,7.98995\Bq,0,0.,0.000378
 ,8.090452\Bq,0,0.,0.000378,8.190955\Bq,0,0.,0.000378,8.291457\Bq,0,0.,
 0.000378,8.39196\Bq,0,0.,0.000378,8.492462\Bq,0,0.,0.000378,8.592965\B
 q,0,0.,0.000378,8.693467\Bq,0,0.,0.000378,8.79397\Bq,0,0.,0.000378,8.8
 94472\Bq,0,0.,0.000378,8.994975\Bq,0,0.,0.000378,9.095477\Bq,0,0.,0.00
 0378,9.19598\Bq,0,0.,0.000378,9.296482\Bq,0,0.,0.000378,9.396985\Bq,0,
 0.,0.000378,9.497487\Bq,0,0.,0.000378,9.59799\Bq,0,0.,0.000378,9.69849
 2\Bq,0,0.,0.000378,9.798995\Bq,0,0.,0.000378,9.899497\Bq,0,0.,0.000378
 ,10.\\Version=ES64L-G16RevC.02\HF=-193.5347123\RMSD=3.232e-09\Dipole=0
 .,0.0004226,0.\Quadrupole=0.7329793,0.7327776,-1.4657568,0.,0.,0.\PG=C
 01 [X(C5H5)]\\@


 ONE OF THE BENEFITS OF A COLLEGE EDUCATION
 IS TO SHOW THE BOY ITS LITTLE AVAIL 
                                    EMERSON IN 'CULTURE'
 Job cpu time:       0 days  0 hours  7 minutes 26.4 seconds.
 Elapsed time:       0 days  0 hours  0 minutes 31.6 seconds.
 File lengths (MBytes):  RWF=     10 Int=      0 D2E=      0 Chk=      2 Scr=      1
 Normal termination of Gaussian 16 at Sun Aug  6 04:28:09 2023.
