 Entering Gaussian System, Link 0=g16
 Initial command:
 /sob/g16/l1.exe "/PM9A1/gauscr/Gau-27779.inp" -scrdir="/PM9A1/gauscr/"
 Default is to use a total of  96 processors:
                               96 via shared-memory
                                1 via Linda
 Entering Link 1 = /sob/g16/l1.exe PID=     27780.
  
 Copyright (c) 1988-2021, Gaussian, Inc.  All Rights Reserved.
  
 This is part of the Gaussian(R) 16 program.  It is based on
 the Gaussian(R) 09 system (copyright 2009, Gaussian, Inc.),
 the Gaussian(R) 03 system (copyright 2003, Gaussian, Inc.),
 the Gaussian(R) 98 system (copyright 1998, Gaussian, Inc.),
 the Gaussian(R) 94 system (copyright 1995, Gaussian, Inc.),
 the Gaussian 92(TM) system (copyright 1992, Gaussian, Inc.),
 the Gaussian 90(TM) system (copyright 1990, Gaussian, Inc.),
 the Gaussian 88(TM) system (copyright 1988, Gaussian, Inc.),
 the Gaussian 86(TM) system (copyright 1986, Carnegie Mellon
 University), and the Gaussian 82(TM) system (copyright 1983,
 Carnegie Mellon University). Gaussian is a federally registered
 trademark of Gaussian, Inc.
  
 This software contains proprietary and confidential information,
 including trade secrets, belonging to Gaussian, Inc.
  
 This software is provided under written license and may be
 used, copied, transmitted, or stored only in accord with that
 written license.
  
 The following legend is applicable only to US Government
 contracts under FAR:
  
                    RESTRICTED RIGHTS LEGEND
  
 Use, reproduction and disclosure by the US Government is
 subject to restrictions as set forth in subparagraphs (a)
 and (c) of the Commercial Computer Software - Restricted
 Rights clause in FAR 52.227-19.
  
 Gaussian, Inc.
 340 Quinnipiac St., Bldg. 40, Wallingford CT 06492
  
  
 ---------------------------------------------------------------
 Warning -- This program may not be used in any manner that
 competes with the business of Gaussian, Inc. or will provide
 assistance to any competitor of Gaussian, Inc.  The licensee
 of this program is prohibited from giving any competitor of
 Gaussian, Inc. access to this program.  By using this program,
 the user acknowledges that Gaussian, Inc. is engaged in the
 business of creating and licensing software in the field of
 computational chemistry and represents and warrants to the
 licensee that it is not a competitor of Gaussian, Inc. and that
 it will not use this program in any manner prohibited above.
 ---------------------------------------------------------------
  

 Cite this work as:
 Gaussian 16, Revision C.02,
 M. J. Frisch, G. W. Trucks, H. B. Schlegel, G. E. Scuseria, 
 M. A. Robb, J. R. Cheeseman, G. Scalmani, V. Barone, 
 G. A. Petersson, H. Nakatsuji, X. Li, M. Caricato, A. V. Marenich, 
 J. Bloino, B. G. Janesko, R. Gomperts, B. Mennucci, H. P. Hratchian, 
 J. V. Ortiz, A. F. Izmaylov, J. L. Sonnenberg, D. Williams-Young, 
 F. Ding, F. Lipparini, F. Egidi, J. Goings, B. Peng, A. Petrone, 
 T. Henderson, D. Ranasinghe, V. G. Zakrzewski, J. Gao, N. Rega, 
 G. Zheng, W. Liang, M. Hada, M. Ehara, K. Toyota, R. Fukuda, 
 J. Hasegawa, M. Ishida, T. Nakajima, Y. Honda, O. Kitao, H. Nakai, 
 T. Vreven, K. Throssell, J. A. Montgomery, Jr., J. E. Peralta, 
 F. Ogliaro, M. J. Bearpark, J. J. Heyd, E. N. Brothers, K. N. Kudin, 
 V. N. Staroverov, T. A. Keith, R. Kobayashi, J. Normand, 
 K. Raghavachari, A. P. Rendell, J. C. Burant, S. S. Iyengar, 
 J. Tomasi, M. Cossi, J. M. Millam, M. Klene, C. Adamo, R. Cammi, 
 J. W. Ochterski, R. L. Martin, K. Morokuma, O. Farkas, 
 J. B. Foresman, and D. J. Fox, Gaussian, Inc., Wallingford CT, 2019.
 
 ******************************************
 Gaussian 16:  ES64L-G16RevC.02  7-Dec-2021
                 6-Aug-2023 
 ******************************************
 Default route: IOp(8/117=-99) IOp(7/127=-99) scf=noincore
 --------------------------------------
 #p b3lyp/6-31+G* NMR geom=connectivity
 --------------------------------------
 1/38=1,57=2,172=1/1;
 2/12=2,17=6,18=5,40=1/2;
 3/5=1,6=6,7=11,11=2,25=1,30=1,74=-5/1,2,3,8;
 4//1;
 5/5=2,38=5/2;
 8/6=1,10=90,11=11,117=-99/1;
 10/13=100,45=16/2;
 6/7=2,8=2,9=2,10=2,28=1/1;
 99/9=1/99;
 Leave Link    1 at Sun Aug  6 02:33:08 2023, MaxMem=           0 cpu:               2.8 elap:               0.1
 (Enter /sob/g16/l101.exe)
 -------------
 template file
 -------------
 Symbolic Z-matrix:
 Charge =  1 Multiplicity = 1
 C                     0.        1.612     0. 
 C                     1.26      1.005     0. 
 C                     1.572    -0.359     0. 
 C                    -1.26      1.005     0. 
 C                     0.699    -1.452     0. 
 C                    -1.572    -0.359     0. 
 C                    -0.699    -1.452     0. 
 H                     0.        2.7       0. 
 H                     2.111     1.683     0. 
 H                     2.632    -0.601     0. 
 H                    -2.111     1.683     0. 
 H                     1.171    -2.432     0. 
 H                    -2.632    -0.601     0. 
 H                    -1.171    -2.432     0. 
 Bq                    0.        0.       -10. 
 Bq                    0.        0.       -9.8995 
 Bq                    0.        0.       -9.79899 
 Bq                    0.        0.       -9.69849 
 Bq                    0.        0.       -9.59799 
 Bq                    0.        0.       -9.49749 
 Bq                    0.        0.       -9.39699 
 Bq                    0.        0.       -9.29648 
 Bq                    0.        0.       -9.19598 
 Bq                    0.        0.       -9.09548 
 Bq                    0.        0.       -8.99498 
 Bq                    0.        0.       -8.89447 
 Bq                    0.        0.       -8.79397 
 Bq                    0.        0.       -8.69347 
 Bq                    0.        0.       -8.59296 
 Bq                    0.        0.       -8.49246 
 Bq                    0.        0.       -8.39196 
 Bq                    0.        0.       -8.29146 
 Bq                    0.        0.       -8.19096 
 Bq                    0.        0.       -8.09045 
 Bq                    0.        0.       -7.98995 
 Bq                    0.        0.       -7.88945 
 Bq                    0.        0.       -7.78895 
 Bq                    0.        0.       -7.68844 
 Bq                    0.        0.       -7.58794 
 Bq                    0.        0.       -7.48744 
 Bq                    0.        0.       -7.38694 
 Bq                    0.        0.       -7.28643 
 Bq                    0.        0.       -7.18593 
 Bq                    0.        0.       -7.08543 
 Bq                    0.        0.       -6.98493 
 Bq                    0.        0.       -6.88442 
 Bq                    0.        0.       -6.78392 
 Bq                    0.        0.       -6.68342 
 Bq                    0.        0.       -6.58291 
 Bq                    0.        0.       -6.48241 
 Bq                    0.        0.       -6.38191 
 Bq                    0.        0.       -6.28141 
 Bq                    0.        0.       -6.18091 
 Bq                    0.        0.       -6.0804 
 Bq                    0.        0.       -5.9799 
 Bq                    0.        0.       -5.8794 
 Bq                    0.        0.       -5.77889 
 Bq                    0.        0.       -5.67839 
 Bq                    0.        0.       -5.57789 
 Bq                    0.        0.       -5.47739 
 Bq                    0.        0.       -5.37688 
 Bq                    0.        0.       -5.27638 
 Bq                    0.        0.       -5.17588 
 Bq                    0.        0.       -5.07538 
 Bq                    0.        0.       -4.97487 
 Bq                    0.        0.       -4.87437 
 Bq                    0.        0.       -4.77387 
 Bq                    0.        0.       -4.67337 
 Bq                    0.        0.       -4.57286 
 Bq                    0.        0.       -4.47236 
 Bq                    0.        0.       -4.37186 
 Bq                    0.        0.       -4.27136 
 Bq                    0.        0.       -4.17085 
 Bq                    0.        0.       -4.07035 
 Bq                    0.        0.       -3.96985 
 Bq                    0.        0.       -3.86935 
 Bq                    0.        0.       -3.76884 
 Bq                    0.        0.       -3.66834 
 Bq                    0.        0.       -3.56784 
 Bq                    0.        0.       -3.46734 
 Bq                    0.        0.       -3.36683 
 Bq                    0.        0.       -3.26633 
 Bq                    0.        0.       -3.16583 
 Bq                    0.        0.       -3.06533 
 Bq                    0.        0.       -2.96482 
 Bq                    0.        0.       -2.86432 
 Bq                    0.        0.       -2.76382 
 Bq                    0.        0.       -2.66332 
 Bq                    0.        0.       -2.56281 
 Bq                    0.        0.       -2.46231 
 Bq                    0.        0.       -2.36181 
 Bq                    0.        0.       -2.26131 
 Bq                    0.        0.       -2.1608 
 Bq                    0.        0.       -2.0603 
 Bq                    0.        0.       -1.9598 
 Bq                    0.        0.       -1.8593 
 Bq                    0.        0.       -1.75879 
 Bq                    0.        0.       -1.65829 
 Bq                    0.        0.       -1.55779 
 Bq                    0.        0.       -1.45729 
 Bq                    0.        0.       -1.35678 
 Bq                    0.        0.       -1.25628 
 Bq                    0.        0.       -1.15578 
 Bq                    0.        0.       -1.05528 
 Bq                    0.        0.       -0.95477 
 Bq                    0.        0.       -0.85427 
 Bq                    0.        0.       -0.75377 
 Bq                    0.        0.       -0.65327 
 Bq                    0.        0.       -0.55276 
 Bq                    0.        0.       -0.45226 
 Bq                    0.        0.       -0.35176 
 Bq                    0.        0.       -0.25126 
 Bq                    0.        0.       -0.15075 
 Bq                    0.        0.       -0.05025 
 Bq                    0.        0.        0.05025 
 Bq                    0.        0.        0.15075 
 Bq                    0.        0.        0.25126 
 Bq                    0.        0.        0.35176 
 Bq                    0.        0.        0.45226 
 Bq                    0.        0.        0.55276 
 Bq                    0.        0.        0.65327 
 Bq                    0.        0.        0.75377 
 Bq                    0.        0.        0.85427 
 Bq                    0.        0.        0.95477 
 Bq                    0.        0.        1.05528 
 Bq                    0.        0.        1.15578 
 Bq                    0.        0.        1.25628 
 Bq                    0.        0.        1.35678 
 Bq                    0.        0.        1.45729 
 Bq                    0.        0.        1.55779 
 Bq                    0.        0.        1.65829 
 Bq                    0.        0.        1.75879 
 Bq                    0.        0.        1.8593 
 Bq                    0.        0.        1.9598 
 Bq                    0.        0.        2.0603 
 Bq                    0.        0.        2.1608 
 Bq                    0.        0.        2.26131 
 Bq                    0.        0.        2.36181 
 Bq                    0.        0.        2.46231 
 Bq                    0.        0.        2.56281 
 Bq                    0.        0.        2.66332 
 Bq                    0.        0.        2.76382 
 Bq                    0.        0.        2.86432 
 Bq                    0.        0.        2.96482 
 Bq                    0.        0.        3.06533 
 Bq                    0.        0.        3.16583 
 Bq                    0.        0.        3.26633 
 Bq                    0.        0.        3.36683 
 Bq                    0.        0.        3.46734 
 Bq                    0.        0.        3.56784 
 Bq                    0.        0.        3.66834 
 Bq                    0.        0.        3.76884 
 Bq                    0.        0.        3.86935 
 Bq                    0.        0.        3.96985 
 Bq                    0.        0.        4.07035 
 Bq                    0.        0.        4.17085 
 Bq                    0.        0.        4.27136 
 Bq                    0.        0.        4.37186 
 Bq                    0.        0.        4.47236 
 Bq                    0.        0.        4.57286 
 Bq                    0.        0.        4.67337 
 Bq                    0.        0.        4.77387 
 Bq                    0.        0.        4.87437 
 Bq                    0.        0.        4.97487 
 Bq                    0.        0.        5.07538 
 Bq                    0.        0.        5.17588 
 Bq                    0.        0.        5.27638 
 Bq                    0.        0.        5.37688 
 Bq                    0.        0.        5.47739 
 Bq                    0.        0.        5.57789 
 Bq                    0.        0.        5.67839 
 Bq                    0.        0.        5.77889 
 Bq                    0.        0.        5.8794 
 Bq                    0.        0.        5.9799 
 Bq                    0.        0.        6.0804 
 Bq                    0.        0.        6.18091 
 Bq                    0.        0.        6.28141 
 Bq                    0.        0.        6.38191 
 Bq                    0.        0.        6.48241 
 Bq                    0.        0.        6.58291 
 Bq                    0.        0.        6.68342 
 Bq                    0.        0.        6.78392 
 Bq                    0.        0.        6.88442 
 Bq                    0.        0.        6.98493 
 Bq                    0.        0.        7.08543 
 Bq                    0.        0.        7.18593 
 Bq                    0.        0.        7.28643 
 Bq                    0.        0.        7.38694 
 Bq                    0.        0.        7.48744 
 Bq                    0.        0.        7.58794 
 Bq                    0.        0.        7.68844 
 Bq                    0.        0.        7.78895 
 Bq                    0.        0.        7.88945 
 Bq                    0.        0.        7.98995 
 Bq                    0.        0.        8.09045 
 Bq                    0.        0.        8.19096 
 Bq                    0.        0.        8.29146 
 Bq                    0.        0.        8.39196 
 Bq                    0.        0.        8.49246 
 Bq                    0.        0.        8.59296 
 Bq                    0.        0.        8.69347 
 Bq                    0.        0.        8.79397 
 Bq                    0.        0.        8.89447 
 Bq                    0.        0.        8.99498 
 Bq                    0.        0.        9.09548 
 Bq                    0.        0.        9.19598 
 Bq                    0.        0.        9.29648 
 Bq                    0.        0.        9.39699 
 Bq                    0.        0.        9.49749 
 Bq                    0.        0.        9.59799 
 Bq                    0.        0.        9.69849 
 Bq                    0.        0.        9.79899 
 Bq                    0.        0.        9.8995 
 Bq                    0.        0.        10. 
 
 ITRead=  0  0  0  0  0  0  0  0  0  0  0  0  0  0  0  0  0  0  0  0
 ITRead=  0  0  0  0  0  0  0  0  0  0  0  0  0  0  0  0  0  0  0  0
 ITRead=  0  0  0  0  0  0  0  0  0  0  0  0  0  0  0  0  0  0  0  0
 ITRead=  0  0  0  0  0  0  0  0  0  0  0  0  0  0  0  0  0  0  0  0
 ITRead=  0  0  0  0  0  0  0  0  0  0  0  0  0  0  0  0  0  0  0  0
 ITRead=  0  0  0  0  0  0  0  0  0  0  0  0  0  0  0  0  0  0  0  0
 ITRead=  0  0  0  0  0  0  0  0  0  0  0  0  0  0  0  0  0  0  0  0
 ITRead=  0  0  0  0  0  0  0  0  0  0  0  0  0  0  0  0  0  0  0  0
 ITRead=  0  0  0  0  0  0  0  0  0  0  0  0  0  0  0  0  0  0  0  0
 ITRead=  0  0  0  0  0  0  0  0  0  0  0  0  0  0  0  0  0  0  0  0
 ITRead=  0  0  0  0  0  0  0  0  0  0  0  0  0  0
 MicOpt= -1 -1 -1 -1 -1 -1 -1 -1 -1 -1 -1 -1 -1 -1 -1 -1 -1 -1 -1 -1
 MicOpt= -1 -1 -1 -1 -1 -1 -1 -1 -1 -1 -1 -1 -1 -1 -1 -1 -1 -1 -1 -1
 MicOpt= -1 -1 -1 -1 -1 -1 -1 -1 -1 -1 -1 -1 -1 -1 -1 -1 -1 -1 -1 -1
 MicOpt= -1 -1 -1 -1 -1 -1 -1 -1 -1 -1 -1 -1 -1 -1 -1 -1 -1 -1 -1 -1
 MicOpt= -1 -1 -1 -1 -1 -1 -1 -1 -1 -1 -1 -1 -1 -1 -1 -1 -1 -1 -1 -1
 MicOpt= -1 -1 -1 -1 -1 -1 -1 -1 -1 -1 -1 -1 -1 -1 -1 -1 -1 -1 -1 -1
 MicOpt= -1 -1 -1 -1 -1 -1 -1 -1 -1 -1 -1 -1 -1 -1 -1 -1 -1 -1 -1 -1
 MicOpt= -1 -1 -1 -1 -1 -1 -1 -1 -1 -1 -1 -1 -1 -1 -1 -1 -1 -1 -1 -1
 MicOpt= -1 -1 -1 -1 -1 -1 -1 -1 -1 -1 -1 -1 -1 -1 -1 -1 -1 -1 -1 -1
 MicOpt= -1 -1 -1 -1 -1 -1 -1 -1 -1 -1 -1 -1 -1 -1 -1 -1 -1 -1 -1 -1
 MicOpt= -1 -1 -1 -1 -1 -1 -1 -1 -1 -1 -1 -1 -1 -1
 NAtoms=    214 NQM=      214 NQMF=       0 NMMI=      0 NMMIF=      0
                NMic=       0 NMicF=      0.
                    Isotopes and Nuclear Properties:
 (Nuclear quadrupole moments (NQMom) in fm**2, nuclear magnetic moments (NMagM)
  in nuclear magnetons)

  Atom         1           2           3           4           5           6           7           8           9          10
 IAtWgt=          12          12          12          12          12          12          12           1           1           1
 AtmWgt=  12.0000000  12.0000000  12.0000000  12.0000000  12.0000000  12.0000000  12.0000000   1.0078250   1.0078250   1.0078250
 NucSpn=           0           0           0           0           0           0           0           1           1           1
 AtZEff=  -0.0000000  -0.0000000  -0.0000000  -0.0000000  -0.0000000  -0.0000000  -0.0000000  -0.0000000  -0.0000000  -0.0000000
 NQMom=    0.0000000   0.0000000   0.0000000   0.0000000   0.0000000   0.0000000   0.0000000   0.0000000   0.0000000   0.0000000
 NMagM=    0.0000000   0.0000000   0.0000000   0.0000000   0.0000000   0.0000000   0.0000000   2.7928460   2.7928460   2.7928460
 AtZNuc=   6.0000000   6.0000000   6.0000000   6.0000000   6.0000000   6.0000000   6.0000000   1.0000000   1.0000000   1.0000000

  Atom        11          12          13          14          15          16          17          18          19          20
 IAtWgt=           1           1           1           1           0           0           0           0           0           0
 AtmWgt=   1.0078250   1.0078250   1.0078250   1.0078250   0.0000000   0.0000000   0.0000000   0.0000000   0.0000000   0.0000000
 NucSpn=           1           1           1           1           0           0           0           0           0           0
 AtZEff=  -0.0000000  -0.0000000  -0.0000000  -0.0000000  -0.0000000  -0.0000000  -0.0000000  -0.0000000  -0.0000000  -0.0000000
 NQMom=    0.0000000   0.0000000   0.0000000   0.0000000   0.0000000   0.0000000   0.0000000   0.0000000   0.0000000   0.0000000
 NMagM=    2.7928460   2.7928460   2.7928460   2.7928460   0.0000000   0.0000000   0.0000000   0.0000000   0.0000000   0.0000000
 AtZNuc=   1.0000000   1.0000000   1.0000000   1.0000000   0.0000000   0.0000000   0.0000000   0.0000000   0.0000000   0.0000000

  Atom        21          22          23          24          25          26          27          28          29          30
 IAtWgt=           0           0           0           0           0           0           0           0           0           0
 AtmWgt=   0.0000000   0.0000000   0.0000000   0.0000000   0.0000000   0.0000000   0.0000000   0.0000000   0.0000000   0.0000000
 NucSpn=           0           0           0           0           0           0           0           0           0           0
 AtZEff=  -0.0000000  -0.0000000  -0.0000000  -0.0000000  -0.0000000  -0.0000000  -0.0000000  -0.0000000  -0.0000000  -0.0000000
 NQMom=    0.0000000   0.0000000   0.0000000   0.0000000   0.0000000   0.0000000   0.0000000   0.0000000   0.0000000   0.0000000
 NMagM=    0.0000000   0.0000000   0.0000000   0.0000000   0.0000000   0.0000000   0.0000000   0.0000000   0.0000000   0.0000000
 AtZNuc=   0.0000000   0.0000000   0.0000000   0.0000000   0.0000000   0.0000000   0.0000000   0.0000000   0.0000000   0.0000000

  Atom        31          32          33          34          35          36          37          38          39          40
 IAtWgt=           0           0           0           0           0           0           0           0           0           0
 AtmWgt=   0.0000000   0.0000000   0.0000000   0.0000000   0.0000000   0.0000000   0.0000000   0.0000000   0.0000000   0.0000000
 NucSpn=           0           0           0           0           0           0           0           0           0           0
 AtZEff=  -0.0000000  -0.0000000  -0.0000000  -0.0000000  -0.0000000  -0.0000000  -0.0000000  -0.0000000  -0.0000000  -0.0000000
 NQMom=    0.0000000   0.0000000   0.0000000   0.0000000   0.0000000   0.0000000   0.0000000   0.0000000   0.0000000   0.0000000
 NMagM=    0.0000000   0.0000000   0.0000000   0.0000000   0.0000000   0.0000000   0.0000000   0.0000000   0.0000000   0.0000000
 AtZNuc=   0.0000000   0.0000000   0.0000000   0.0000000   0.0000000   0.0000000   0.0000000   0.0000000   0.0000000   0.0000000

  Atom        41          42          43          44          45          46          47          48          49          50
 IAtWgt=           0           0           0           0           0           0           0           0           0           0
 AtmWgt=   0.0000000   0.0000000   0.0000000   0.0000000   0.0000000   0.0000000   0.0000000   0.0000000   0.0000000   0.0000000
 NucSpn=           0           0           0           0           0           0           0           0           0           0
 AtZEff=  -0.0000000  -0.0000000  -0.0000000  -0.0000000  -0.0000000  -0.0000000  -0.0000000  -0.0000000  -0.0000000  -0.0000000
 NQMom=    0.0000000   0.0000000   0.0000000   0.0000000   0.0000000   0.0000000   0.0000000   0.0000000   0.0000000   0.0000000
 NMagM=    0.0000000   0.0000000   0.0000000   0.0000000   0.0000000   0.0000000   0.0000000   0.0000000   0.0000000   0.0000000
 AtZNuc=   0.0000000   0.0000000   0.0000000   0.0000000   0.0000000   0.0000000   0.0000000   0.0000000   0.0000000   0.0000000

  Atom        51          52          53          54          55          56          57          58          59          60
 IAtWgt=           0           0           0           0           0           0           0           0           0           0
 AtmWgt=   0.0000000   0.0000000   0.0000000   0.0000000   0.0000000   0.0000000   0.0000000   0.0000000   0.0000000   0.0000000
 NucSpn=           0           0           0           0           0           0           0           0           0           0
 AtZEff=  -0.0000000  -0.0000000  -0.0000000  -0.0000000  -0.0000000  -0.0000000  -0.0000000  -0.0000000  -0.0000000  -0.0000000
 NQMom=    0.0000000   0.0000000   0.0000000   0.0000000   0.0000000   0.0000000   0.0000000   0.0000000   0.0000000   0.0000000
 NMagM=    0.0000000   0.0000000   0.0000000   0.0000000   0.0000000   0.0000000   0.0000000   0.0000000   0.0000000   0.0000000
 AtZNuc=   0.0000000   0.0000000   0.0000000   0.0000000   0.0000000   0.0000000   0.0000000   0.0000000   0.0000000   0.0000000

  Atom        61          62          63          64          65          66          67          68          69          70
 IAtWgt=           0           0           0           0           0           0           0           0           0           0
 AtmWgt=   0.0000000   0.0000000   0.0000000   0.0000000   0.0000000   0.0000000   0.0000000   0.0000000   0.0000000   0.0000000
 NucSpn=           0           0           0           0           0           0           0           0           0           0
 AtZEff=  -0.0000000  -0.0000000  -0.0000000  -0.0000000  -0.0000000  -0.0000000  -0.0000000  -0.0000000  -0.0000000  -0.0000000
 NQMom=    0.0000000   0.0000000   0.0000000   0.0000000   0.0000000   0.0000000   0.0000000   0.0000000   0.0000000   0.0000000
 NMagM=    0.0000000   0.0000000   0.0000000   0.0000000   0.0000000   0.0000000   0.0000000   0.0000000   0.0000000   0.0000000
 AtZNuc=   0.0000000   0.0000000   0.0000000   0.0000000   0.0000000   0.0000000   0.0000000   0.0000000   0.0000000   0.0000000

  Atom        71          72          73          74          75          76          77          78          79          80
 IAtWgt=           0           0           0           0           0           0           0           0           0           0
 AtmWgt=   0.0000000   0.0000000   0.0000000   0.0000000   0.0000000   0.0000000   0.0000000   0.0000000   0.0000000   0.0000000
 NucSpn=           0           0           0           0           0           0           0           0           0           0
 AtZEff=  -0.0000000  -0.0000000  -0.0000000  -0.0000000  -0.0000000  -0.0000000  -0.0000000  -0.0000000  -0.0000000  -0.0000000
 NQMom=    0.0000000   0.0000000   0.0000000   0.0000000   0.0000000   0.0000000   0.0000000   0.0000000   0.0000000   0.0000000
 NMagM=    0.0000000   0.0000000   0.0000000   0.0000000   0.0000000   0.0000000   0.0000000   0.0000000   0.0000000   0.0000000
 AtZNuc=   0.0000000   0.0000000   0.0000000   0.0000000   0.0000000   0.0000000   0.0000000   0.0000000   0.0000000   0.0000000

  Atom        81          82          83          84          85          86          87          88          89          90
 IAtWgt=           0           0           0           0           0           0           0           0           0           0
 AtmWgt=   0.0000000   0.0000000   0.0000000   0.0000000   0.0000000   0.0000000   0.0000000   0.0000000   0.0000000   0.0000000
 NucSpn=           0           0           0           0           0           0           0           0           0           0
 AtZEff=  -0.0000000  -0.0000000  -0.0000000  -0.0000000  -0.0000000  -0.0000000  -0.0000000  -0.0000000  -0.0000000  -0.0000000
 NQMom=    0.0000000   0.0000000   0.0000000   0.0000000   0.0000000   0.0000000   0.0000000   0.0000000   0.0000000   0.0000000
 NMagM=    0.0000000   0.0000000   0.0000000   0.0000000   0.0000000   0.0000000   0.0000000   0.0000000   0.0000000   0.0000000
 AtZNuc=   0.0000000   0.0000000   0.0000000   0.0000000   0.0000000   0.0000000   0.0000000   0.0000000   0.0000000   0.0000000

  Atom        91          92          93          94          95          96          97          98          99         100
 IAtWgt=           0           0           0           0           0           0           0           0           0           0
 AtmWgt=   0.0000000   0.0000000   0.0000000   0.0000000   0.0000000   0.0000000   0.0000000   0.0000000   0.0000000   0.0000000
 NucSpn=           0           0           0           0           0           0           0           0           0           0
 AtZEff=  -0.0000000  -0.0000000  -0.0000000  -0.0000000  -0.0000000  -0.0000000  -0.0000000  -0.0000000  -0.0000000  -0.0000000
 NQMom=    0.0000000   0.0000000   0.0000000   0.0000000   0.0000000   0.0000000   0.0000000   0.0000000   0.0000000   0.0000000
 NMagM=    0.0000000   0.0000000   0.0000000   0.0000000   0.0000000   0.0000000   0.0000000   0.0000000   0.0000000   0.0000000
 AtZNuc=   0.0000000   0.0000000   0.0000000   0.0000000   0.0000000   0.0000000   0.0000000   0.0000000   0.0000000   0.0000000

  Atom       101         102         103         104         105         106         107         108         109         110
 IAtWgt=           0           0           0           0           0           0           0           0           0           0
 AtmWgt=   0.0000000   0.0000000   0.0000000   0.0000000   0.0000000   0.0000000   0.0000000   0.0000000   0.0000000   0.0000000
 NucSpn=           0           0           0           0           0           0           0           0           0           0
 AtZEff=  -0.0000000  -0.0000000  -0.0000000  -0.0000000  -0.0000000  -0.0000000  -0.0000000  -0.0000000  -0.0000000  -0.0000000
 NQMom=    0.0000000   0.0000000   0.0000000   0.0000000   0.0000000   0.0000000   0.0000000   0.0000000   0.0000000   0.0000000
 NMagM=    0.0000000   0.0000000   0.0000000   0.0000000   0.0000000   0.0000000   0.0000000   0.0000000   0.0000000   0.0000000
 AtZNuc=   0.0000000   0.0000000   0.0000000   0.0000000   0.0000000   0.0000000   0.0000000   0.0000000   0.0000000   0.0000000

  Atom       111         112         113         114         115         116         117         118         119         120
 IAtWgt=           0           0           0           0           0           0           0           0           0           0
 AtmWgt=   0.0000000   0.0000000   0.0000000   0.0000000   0.0000000   0.0000000   0.0000000   0.0000000   0.0000000   0.0000000
 NucSpn=           0           0           0           0           0           0           0           0           0           0
 AtZEff=  -0.0000000  -0.0000000  -0.0000000  -0.0000000  -0.0000000  -0.0000000  -0.0000000  -0.0000000  -0.0000000  -0.0000000
 NQMom=    0.0000000   0.0000000   0.0000000   0.0000000   0.0000000   0.0000000   0.0000000   0.0000000   0.0000000   0.0000000
 NMagM=    0.0000000   0.0000000   0.0000000   0.0000000   0.0000000   0.0000000   0.0000000   0.0000000   0.0000000   0.0000000
 AtZNuc=   0.0000000   0.0000000   0.0000000   0.0000000   0.0000000   0.0000000   0.0000000   0.0000000   0.0000000   0.0000000

  Atom       121         122         123         124         125         126         127         128         129         130
 IAtWgt=           0           0           0           0           0           0           0           0           0           0
 AtmWgt=   0.0000000   0.0000000   0.0000000   0.0000000   0.0000000   0.0000000   0.0000000   0.0000000   0.0000000   0.0000000
 NucSpn=           0           0           0           0           0           0           0           0           0           0
 AtZEff=  -0.0000000  -0.0000000  -0.0000000  -0.0000000  -0.0000000  -0.0000000  -0.0000000  -0.0000000  -0.0000000  -0.0000000
 NQMom=    0.0000000   0.0000000   0.0000000   0.0000000   0.0000000   0.0000000   0.0000000   0.0000000   0.0000000   0.0000000
 NMagM=    0.0000000   0.0000000   0.0000000   0.0000000   0.0000000   0.0000000   0.0000000   0.0000000   0.0000000   0.0000000
 AtZNuc=   0.0000000   0.0000000   0.0000000   0.0000000   0.0000000   0.0000000   0.0000000   0.0000000   0.0000000   0.0000000

  Atom       131         132         133         134         135         136         137         138         139         140
 IAtWgt=           0           0           0           0           0           0           0           0           0           0
 AtmWgt=   0.0000000   0.0000000   0.0000000   0.0000000   0.0000000   0.0000000   0.0000000   0.0000000   0.0000000   0.0000000
 NucSpn=           0           0           0           0           0           0           0           0           0           0
 AtZEff=  -0.0000000  -0.0000000  -0.0000000  -0.0000000  -0.0000000  -0.0000000  -0.0000000  -0.0000000  -0.0000000  -0.0000000
 NQMom=    0.0000000   0.0000000   0.0000000   0.0000000   0.0000000   0.0000000   0.0000000   0.0000000   0.0000000   0.0000000
 NMagM=    0.0000000   0.0000000   0.0000000   0.0000000   0.0000000   0.0000000   0.0000000   0.0000000   0.0000000   0.0000000
 AtZNuc=   0.0000000   0.0000000   0.0000000   0.0000000   0.0000000   0.0000000   0.0000000   0.0000000   0.0000000   0.0000000

  Atom       141         142         143         144         145         146         147         148         149         150
 IAtWgt=           0           0           0           0           0           0           0           0           0           0
 AtmWgt=   0.0000000   0.0000000   0.0000000   0.0000000   0.0000000   0.0000000   0.0000000   0.0000000   0.0000000   0.0000000
 NucSpn=           0           0           0           0           0           0           0           0           0           0
 AtZEff=  -0.0000000  -0.0000000  -0.0000000  -0.0000000  -0.0000000  -0.0000000  -0.0000000  -0.0000000  -0.0000000  -0.0000000
 NQMom=    0.0000000   0.0000000   0.0000000   0.0000000   0.0000000   0.0000000   0.0000000   0.0000000   0.0000000   0.0000000
 NMagM=    0.0000000   0.0000000   0.0000000   0.0000000   0.0000000   0.0000000   0.0000000   0.0000000   0.0000000   0.0000000
 AtZNuc=   0.0000000   0.0000000   0.0000000   0.0000000   0.0000000   0.0000000   0.0000000   0.0000000   0.0000000   0.0000000

  Atom       151         152         153         154         155         156         157         158         159         160
 IAtWgt=           0           0           0           0           0           0           0           0           0           0
 AtmWgt=   0.0000000   0.0000000   0.0000000   0.0000000   0.0000000   0.0000000   0.0000000   0.0000000   0.0000000   0.0000000
 NucSpn=           0           0           0           0           0           0           0           0           0           0
 AtZEff=  -0.0000000  -0.0000000  -0.0000000  -0.0000000  -0.0000000  -0.0000000  -0.0000000  -0.0000000  -0.0000000  -0.0000000
 NQMom=    0.0000000   0.0000000   0.0000000   0.0000000   0.0000000   0.0000000   0.0000000   0.0000000   0.0000000   0.0000000
 NMagM=    0.0000000   0.0000000   0.0000000   0.0000000   0.0000000   0.0000000   0.0000000   0.0000000   0.0000000   0.0000000
 AtZNuc=   0.0000000   0.0000000   0.0000000   0.0000000   0.0000000   0.0000000   0.0000000   0.0000000   0.0000000   0.0000000

  Atom       161         162         163         164         165         166         167         168         169         170
 IAtWgt=           0           0           0           0           0           0           0           0           0           0
 AtmWgt=   0.0000000   0.0000000   0.0000000   0.0000000   0.0000000   0.0000000   0.0000000   0.0000000   0.0000000   0.0000000
 NucSpn=           0           0           0           0           0           0           0           0           0           0
 AtZEff=  -0.0000000  -0.0000000  -0.0000000  -0.0000000  -0.0000000  -0.0000000  -0.0000000  -0.0000000  -0.0000000  -0.0000000
 NQMom=    0.0000000   0.0000000   0.0000000   0.0000000   0.0000000   0.0000000   0.0000000   0.0000000   0.0000000   0.0000000
 NMagM=    0.0000000   0.0000000   0.0000000   0.0000000   0.0000000   0.0000000   0.0000000   0.0000000   0.0000000   0.0000000
 AtZNuc=   0.0000000   0.0000000   0.0000000   0.0000000   0.0000000   0.0000000   0.0000000   0.0000000   0.0000000   0.0000000

  Atom       171         172         173         174         175         176         177         178         179         180
 IAtWgt=           0           0           0           0           0           0           0           0           0           0
 AtmWgt=   0.0000000   0.0000000   0.0000000   0.0000000   0.0000000   0.0000000   0.0000000   0.0000000   0.0000000   0.0000000
 NucSpn=           0           0           0           0           0           0           0           0           0           0
 AtZEff=  -0.0000000  -0.0000000  -0.0000000  -0.0000000  -0.0000000  -0.0000000  -0.0000000  -0.0000000  -0.0000000  -0.0000000
 NQMom=    0.0000000   0.0000000   0.0000000   0.0000000   0.0000000   0.0000000   0.0000000   0.0000000   0.0000000   0.0000000
 NMagM=    0.0000000   0.0000000   0.0000000   0.0000000   0.0000000   0.0000000   0.0000000   0.0000000   0.0000000   0.0000000
 AtZNuc=   0.0000000   0.0000000   0.0000000   0.0000000   0.0000000   0.0000000   0.0000000   0.0000000   0.0000000   0.0000000

  Atom       181         182         183         184         185         186         187         188         189         190
 IAtWgt=           0           0           0           0           0           0           0           0           0           0
 AtmWgt=   0.0000000   0.0000000   0.0000000   0.0000000   0.0000000   0.0000000   0.0000000   0.0000000   0.0000000   0.0000000
 NucSpn=           0           0           0           0           0           0           0           0           0           0
 AtZEff=  -0.0000000  -0.0000000  -0.0000000  -0.0000000  -0.0000000  -0.0000000  -0.0000000  -0.0000000  -0.0000000  -0.0000000
 NQMom=    0.0000000   0.0000000   0.0000000   0.0000000   0.0000000   0.0000000   0.0000000   0.0000000   0.0000000   0.0000000
 NMagM=    0.0000000   0.0000000   0.0000000   0.0000000   0.0000000   0.0000000   0.0000000   0.0000000   0.0000000   0.0000000
 AtZNuc=   0.0000000   0.0000000   0.0000000   0.0000000   0.0000000   0.0000000   0.0000000   0.0000000   0.0000000   0.0000000

  Atom       191         192         193         194         195         196         197         198         199         200
 IAtWgt=           0           0           0           0           0           0           0           0           0           0
 AtmWgt=   0.0000000   0.0000000   0.0000000   0.0000000   0.0000000   0.0000000   0.0000000   0.0000000   0.0000000   0.0000000
 NucSpn=           0           0           0           0           0           0           0           0           0           0
 AtZEff=  -0.0000000  -0.0000000  -0.0000000  -0.0000000  -0.0000000  -0.0000000  -0.0000000  -0.0000000  -0.0000000  -0.0000000
 NQMom=    0.0000000   0.0000000   0.0000000   0.0000000   0.0000000   0.0000000   0.0000000   0.0000000   0.0000000   0.0000000
 NMagM=    0.0000000   0.0000000   0.0000000   0.0000000   0.0000000   0.0000000   0.0000000   0.0000000   0.0000000   0.0000000
 AtZNuc=   0.0000000   0.0000000   0.0000000   0.0000000   0.0000000   0.0000000   0.0000000   0.0000000   0.0000000   0.0000000

  Atom       201         202         203         204         205         206         207         208         209         210
 IAtWgt=           0           0           0           0           0           0           0           0           0           0
 AtmWgt=   0.0000000   0.0000000   0.0000000   0.0000000   0.0000000   0.0000000   0.0000000   0.0000000   0.0000000   0.0000000
 NucSpn=           0           0           0           0           0           0           0           0           0           0
 AtZEff=  -0.0000000  -0.0000000  -0.0000000  -0.0000000  -0.0000000  -0.0000000  -0.0000000  -0.0000000  -0.0000000  -0.0000000
 NQMom=    0.0000000   0.0000000   0.0000000   0.0000000   0.0000000   0.0000000   0.0000000   0.0000000   0.0000000   0.0000000
 NMagM=    0.0000000   0.0000000   0.0000000   0.0000000   0.0000000   0.0000000   0.0000000   0.0000000   0.0000000   0.0000000
 AtZNuc=   0.0000000   0.0000000   0.0000000   0.0000000   0.0000000   0.0000000   0.0000000   0.0000000   0.0000000   0.0000000

  Atom       211         212         213         214
 IAtWgt=           0           0           0           0
 AtmWgt=   0.0000000   0.0000000   0.0000000   0.0000000
 NucSpn=           0           0           0           0
 AtZEff=  -0.0000000  -0.0000000  -0.0000000  -0.0000000
 NQMom=    0.0000000   0.0000000   0.0000000   0.0000000
 NMagM=    0.0000000   0.0000000   0.0000000   0.0000000
 AtZNuc=   0.0000000   0.0000000   0.0000000   0.0000000
 Leave Link  101 at Sun Aug  6 02:33:08 2023, MaxMem= 64424509440 cpu:               1.6 elap:               0.1
 (Enter /sob/g16/l202.exe)
 Symmetry turned off:
 Cannot cope with ghost atoms or with translation vectors.
 Stoichiometry    C7H7(1+)
 Framework group  C1[X(C7H7)]
 NumDoF:  NAt=    14 NAtoms=   214
 Deg. of freedom     0
 Full point group                 C1      NOp   1
                          Input orientation:                          
 ---------------------------------------------------------------------
 Center     Atomic      Atomic             Coordinates (Angstroms)
 Number     Number       Type             X           Y           Z
 ---------------------------------------------------------------------
      1          6           0        0.000000    1.612000    0.000000
      2          6           0        1.260000    1.005000    0.000000
      3          6           0        1.572000   -0.359000    0.000000
      4          6           0       -1.260000    1.005000    0.000000
      5          6           0        0.699000   -1.452000    0.000000
      6          6           0       -1.572000   -0.359000    0.000000
      7          6           0       -0.699000   -1.452000    0.000000
      8          1           0        0.000000    2.700000    0.000000
      9          1           0        2.111000    1.683000    0.000000
     10          1           0        2.632000   -0.601000    0.000000
     11          1           0       -2.111000    1.683000    0.000000
     12          1           0        1.171000   -2.432000    0.000000
     13          1           0       -2.632000   -0.601000    0.000000
     14          1           0       -1.171000   -2.432000    0.000000
     15          0           0        0.000000    0.000000  -10.000000
     16          0           0        0.000000    0.000000   -9.899497
     17          0           0        0.000000    0.000000   -9.798995
     18          0           0        0.000000    0.000000   -9.698492
     19          0           0        0.000000    0.000000   -9.597990
     20          0           0        0.000000    0.000000   -9.497487
     21          0           0        0.000000    0.000000   -9.396985
     22          0           0        0.000000    0.000000   -9.296482
     23          0           0        0.000000    0.000000   -9.195980
     24          0           0        0.000000    0.000000   -9.095477
     25          0           0        0.000000    0.000000   -8.994975
     26          0           0        0.000000    0.000000   -8.894472
     27          0           0        0.000000    0.000000   -8.793970
     28          0           0        0.000000    0.000000   -8.693467
     29          0           0        0.000000    0.000000   -8.592965
     30          0           0        0.000000    0.000000   -8.492462
     31          0           0        0.000000    0.000000   -8.391960
     32          0           0        0.000000    0.000000   -8.291457
     33          0           0        0.000000    0.000000   -8.190955
     34          0           0        0.000000    0.000000   -8.090452
     35          0           0        0.000000    0.000000   -7.989950
     36          0           0        0.000000    0.000000   -7.889447
     37          0           0        0.000000    0.000000   -7.788945
     38          0           0        0.000000    0.000000   -7.688442
     39          0           0        0.000000    0.000000   -7.587940
     40          0           0        0.000000    0.000000   -7.487437
     41          0           0        0.000000    0.000000   -7.386935
     42          0           0        0.000000    0.000000   -7.286432
     43          0           0        0.000000    0.000000   -7.185930
     44          0           0        0.000000    0.000000   -7.085427
     45          0           0        0.000000    0.000000   -6.984925
     46          0           0        0.000000    0.000000   -6.884422
     47          0           0        0.000000    0.000000   -6.783920
     48          0           0        0.000000    0.000000   -6.683417
     49          0           0        0.000000    0.000000   -6.582915
     50          0           0        0.000000    0.000000   -6.482412
     51          0           0        0.000000    0.000000   -6.381910
     52          0           0        0.000000    0.000000   -6.281407
     53          0           0        0.000000    0.000000   -6.180905
     54          0           0        0.000000    0.000000   -6.080402
     55          0           0        0.000000    0.000000   -5.979899
     56          0           0        0.000000    0.000000   -5.879397
     57          0           0        0.000000    0.000000   -5.778894
     58          0           0        0.000000    0.000000   -5.678392
     59          0           0        0.000000    0.000000   -5.577889
     60          0           0        0.000000    0.000000   -5.477387
     61          0           0        0.000000    0.000000   -5.376884
     62          0           0        0.000000    0.000000   -5.276382
     63          0           0        0.000000    0.000000   -5.175879
     64          0           0        0.000000    0.000000   -5.075377
     65          0           0        0.000000    0.000000   -4.974874
     66          0           0        0.000000    0.000000   -4.874372
     67          0           0        0.000000    0.000000   -4.773869
     68          0           0        0.000000    0.000000   -4.673367
     69          0           0        0.000000    0.000000   -4.572864
     70          0           0        0.000000    0.000000   -4.472362
     71          0           0        0.000000    0.000000   -4.371859
     72          0           0        0.000000    0.000000   -4.271357
     73          0           0        0.000000    0.000000   -4.170854
     74          0           0        0.000000    0.000000   -4.070352
     75          0           0        0.000000    0.000000   -3.969849
     76          0           0        0.000000    0.000000   -3.869347
     77          0           0        0.000000    0.000000   -3.768844
     78          0           0        0.000000    0.000000   -3.668342
     79          0           0        0.000000    0.000000   -3.567839
     80          0           0        0.000000    0.000000   -3.467337
     81          0           0        0.000000    0.000000   -3.366834
     82          0           0        0.000000    0.000000   -3.266332
     83          0           0        0.000000    0.000000   -3.165829
     84          0           0        0.000000    0.000000   -3.065327
     85          0           0        0.000000    0.000000   -2.964824
     86          0           0        0.000000    0.000000   -2.864322
     87          0           0        0.000000    0.000000   -2.763819
     88          0           0        0.000000    0.000000   -2.663317
     89          0           0        0.000000    0.000000   -2.562814
     90          0           0        0.000000    0.000000   -2.462312
     91          0           0        0.000000    0.000000   -2.361809
     92          0           0        0.000000    0.000000   -2.261307
     93          0           0        0.000000    0.000000   -2.160804
     94          0           0        0.000000    0.000000   -2.060302
     95          0           0        0.000000    0.000000   -1.959799
     96          0           0        0.000000    0.000000   -1.859296
     97          0           0        0.000000    0.000000   -1.758794
     98          0           0        0.000000    0.000000   -1.658291
     99          0           0        0.000000    0.000000   -1.557789
    100          0           0        0.000000    0.000000   -1.457286
    101          0           0        0.000000    0.000000   -1.356784
    102          0           0        0.000000    0.000000   -1.256281
    103          0           0        0.000000    0.000000   -1.155779
    104          0           0        0.000000    0.000000   -1.055276
    105          0           0        0.000000    0.000000   -0.954774
    106          0           0        0.000000    0.000000   -0.854271
    107          0           0        0.000000    0.000000   -0.753769
    108          0           0        0.000000    0.000000   -0.653266
    109          0           0        0.000000    0.000000   -0.552764
    110          0           0        0.000000    0.000000   -0.452261
    111          0           0        0.000000    0.000000   -0.351759
    112          0           0        0.000000    0.000000   -0.251256
    113          0           0        0.000000    0.000000   -0.150754
    114          0           0        0.000000    0.000000   -0.050251
    115          0           0        0.000000    0.000000    0.050251
    116          0           0        0.000000    0.000000    0.150754
    117          0           0        0.000000    0.000000    0.251256
    118          0           0        0.000000    0.000000    0.351759
    119          0           0        0.000000    0.000000    0.452261
    120          0           0        0.000000    0.000000    0.552764
    121          0           0        0.000000    0.000000    0.653266
    122          0           0        0.000000    0.000000    0.753769
    123          0           0        0.000000    0.000000    0.854271
    124          0           0        0.000000    0.000000    0.954774
    125          0           0        0.000000    0.000000    1.055276
    126          0           0        0.000000    0.000000    1.155779
    127          0           0        0.000000    0.000000    1.256281
    128          0           0        0.000000    0.000000    1.356784
    129          0           0        0.000000    0.000000    1.457286
    130          0           0        0.000000    0.000000    1.557789
    131          0           0        0.000000    0.000000    1.658291
    132          0           0        0.000000    0.000000    1.758794
    133          0           0        0.000000    0.000000    1.859296
    134          0           0        0.000000    0.000000    1.959799
    135          0           0        0.000000    0.000000    2.060302
    136          0           0        0.000000    0.000000    2.160804
    137          0           0        0.000000    0.000000    2.261307
    138          0           0        0.000000    0.000000    2.361809
    139          0           0        0.000000    0.000000    2.462312
    140          0           0        0.000000    0.000000    2.562814
    141          0           0        0.000000    0.000000    2.663317
    142          0           0        0.000000    0.000000    2.763819
    143          0           0        0.000000    0.000000    2.864322
    144          0           0        0.000000    0.000000    2.964824
    145          0           0        0.000000    0.000000    3.065327
    146          0           0        0.000000    0.000000    3.165829
    147          0           0        0.000000    0.000000    3.266332
    148          0           0        0.000000    0.000000    3.366834
    149          0           0        0.000000    0.000000    3.467337
    150          0           0        0.000000    0.000000    3.567839
    151          0           0        0.000000    0.000000    3.668342
    152          0           0        0.000000    0.000000    3.768844
    153          0           0        0.000000    0.000000    3.869347
    154          0           0        0.000000    0.000000    3.969849
    155          0           0        0.000000    0.000000    4.070352
    156          0           0        0.000000    0.000000    4.170854
    157          0           0        0.000000    0.000000    4.271357
    158          0           0        0.000000    0.000000    4.371859
    159          0           0        0.000000    0.000000    4.472362
    160          0           0        0.000000    0.000000    4.572864
    161          0           0        0.000000    0.000000    4.673367
    162          0           0        0.000000    0.000000    4.773869
    163          0           0        0.000000    0.000000    4.874372
    164          0           0        0.000000    0.000000    4.974874
    165          0           0        0.000000    0.000000    5.075377
    166          0           0        0.000000    0.000000    5.175879
    167          0           0        0.000000    0.000000    5.276382
    168          0           0        0.000000    0.000000    5.376884
    169          0           0        0.000000    0.000000    5.477387
    170          0           0        0.000000    0.000000    5.577889
    171          0           0        0.000000    0.000000    5.678392
    172          0           0        0.000000    0.000000    5.778894
    173          0           0        0.000000    0.000000    5.879397
    174          0           0        0.000000    0.000000    5.979899
    175          0           0        0.000000    0.000000    6.080402
    176          0           0        0.000000    0.000000    6.180905
    177          0           0        0.000000    0.000000    6.281407
    178          0           0        0.000000    0.000000    6.381910
    179          0           0        0.000000    0.000000    6.482412
    180          0           0        0.000000    0.000000    6.582915
    181          0           0        0.000000    0.000000    6.683417
    182          0           0        0.000000    0.000000    6.783920
    183          0           0        0.000000    0.000000    6.884422
    184          0           0        0.000000    0.000000    6.984925
    185          0           0        0.000000    0.000000    7.085427
    186          0           0        0.000000    0.000000    7.185930
    187          0           0        0.000000    0.000000    7.286432
    188          0           0        0.000000    0.000000    7.386935
    189          0           0        0.000000    0.000000    7.487437
    190          0           0        0.000000    0.000000    7.587940
    191          0           0        0.000000    0.000000    7.688442
    192          0           0        0.000000    0.000000    7.788945
    193          0           0        0.000000    0.000000    7.889447
    194          0           0        0.000000    0.000000    7.989950
    195          0           0        0.000000    0.000000    8.090452
    196          0           0        0.000000    0.000000    8.190955
    197          0           0        0.000000    0.000000    8.291457
    198          0           0        0.000000    0.000000    8.391960
    199          0           0        0.000000    0.000000    8.492462
    200          0           0        0.000000    0.000000    8.592965
    201          0           0        0.000000    0.000000    8.693467
    202          0           0        0.000000    0.000000    8.793970
    203          0           0        0.000000    0.000000    8.894472
    204          0           0        0.000000    0.000000    8.994975
    205          0           0        0.000000    0.000000    9.095477
    206          0           0        0.000000    0.000000    9.195980
    207          0           0        0.000000    0.000000    9.296482
    208          0           0        0.000000    0.000000    9.396985
    209          0           0        0.000000    0.000000    9.497487
    210          0           0        0.000000    0.000000    9.597990
    211          0           0        0.000000    0.000000    9.698492
    212          0           0        0.000000    0.000000    9.798995
    213          0           0        0.000000    0.000000    9.899497
    214          0           0        0.000000    0.000000   10.000000
 ---------------------------------------------------------------------
 Rotational constants (GHZ):           3.7484966           3.7478005           1.8740743
 Leave Link  202 at Sun Aug  6 02:33:08 2023, MaxMem= 64424509440 cpu:               2.1 elap:               0.1
 (Enter /sob/g16/l301.exe)
 Standard basis: 6-31+G(d) (6D, 7F)
 Warning:  center  15 has no basis functions!
 Warning:  center  16 has no basis functions!
 Warning:  center  17 has no basis functions!
 Warning:  center  18 has no basis functions!
 Warning:  center  19 has no basis functions!
 Warning:  center  20 has no basis functions!
 Warning:  center  21 has no basis functions!
 Warning:  center  22 has no basis functions!
 Warning:  center  23 has no basis functions!
 Warning:  center  24 has no basis functions!
 Warning:  center  25 has no basis functions!
 Warning:  center  26 has no basis functions!
 Warning:  center  27 has no basis functions!
 Warning:  center  28 has no basis functions!
 Warning:  center  29 has no basis functions!
 Warning:  center  30 has no basis functions!
 Warning:  center  31 has no basis functions!
 Warning:  center  32 has no basis functions!
 Warning:  center  33 has no basis functions!
 Warning:  center  34 has no basis functions!
 Warning:  center  35 has no basis functions!
 Warning:  center  36 has no basis functions!
 Warning:  center  37 has no basis functions!
 Warning:  center  38 has no basis functions!
 Warning:  center  39 has no basis functions!
 Warning:  center  40 has no basis functions!
 Warning:  center  41 has no basis functions!
 Warning:  center  42 has no basis functions!
 Warning:  center  43 has no basis functions!
 Warning:  center  44 has no basis functions!
 Warning:  center  45 has no basis functions!
 Warning:  center  46 has no basis functions!
 Warning:  center  47 has no basis functions!
 Warning:  center  48 has no basis functions!
 Warning:  center  49 has no basis functions!
 Warning:  center  50 has no basis functions!
 Warning:  center  51 has no basis functions!
 Warning:  center  52 has no basis functions!
 Warning:  center  53 has no basis functions!
 Warning:  center  54 has no basis functions!
 Warning:  center  55 has no basis functions!
 Warning:  center  56 has no basis functions!
 Warning:  center  57 has no basis functions!
 Warning:  center  58 has no basis functions!
 Warning:  center  59 has no basis functions!
 Warning:  center  60 has no basis functions!
 Warning:  center  61 has no basis functions!
 Warning:  center  62 has no basis functions!
 Warning:  center  63 has no basis functions!
 Warning:  center  64 has no basis functions!
 Warning:  center  65 has no basis functions!
 Warning:  center  66 has no basis functions!
 Warning:  center  67 has no basis functions!
 Warning:  center  68 has no basis functions!
 Warning:  center  69 has no basis functions!
 Warning:  center  70 has no basis functions!
 Warning:  center  71 has no basis functions!
 Warning:  center  72 has no basis functions!
 Warning:  center  73 has no basis functions!
 Warning:  center  74 has no basis functions!
 Warning:  center  75 has no basis functions!
 Warning:  center  76 has no basis functions!
 Warning:  center  77 has no basis functions!
 Warning:  center  78 has no basis functions!
 Warning:  center  79 has no basis functions!
 Warning:  center  80 has no basis functions!
 Warning:  center  81 has no basis functions!
 Warning:  center  82 has no basis functions!
 Warning:  center  83 has no basis functions!
 Warning:  center  84 has no basis functions!
 Warning:  center  85 has no basis functions!
 Warning:  center  86 has no basis functions!
 Warning:  center  87 has no basis functions!
 Warning:  center  88 has no basis functions!
 Warning:  center  89 has no basis functions!
 Warning:  center  90 has no basis functions!
 Warning:  center  91 has no basis functions!
 Warning:  center  92 has no basis functions!
 Warning:  center  93 has no basis functions!
 Warning:  center  94 has no basis functions!
 Warning:  center  95 has no basis functions!
 Warning:  center  96 has no basis functions!
 Warning:  center  97 has no basis functions!
 Warning:  center  98 has no basis functions!
 Warning:  center  99 has no basis functions!
 Warning:  center 100 has no basis functions!
 Warning:  center 101 has no basis functions!
 Warning:  center 102 has no basis functions!
 Warning:  center 103 has no basis functions!
 Warning:  center 104 has no basis functions!
 Warning:  center 105 has no basis functions!
 Warning:  center 106 has no basis functions!
 Warning:  center 107 has no basis functions!
 Warning:  center 108 has no basis functions!
 Warning:  center 109 has no basis functions!
 Warning:  center 110 has no basis functions!
 Warning:  center 111 has no basis functions!
 Warning:  center 112 has no basis functions!
 Warning:  center 113 has no basis functions!
 Warning:  center 114 has no basis functions!
 Warning:  center 115 has no basis functions!
 Warning:  center 116 has no basis functions!
 Warning:  center 117 has no basis functions!
 Warning:  center 118 has no basis functions!
 Warning:  center 119 has no basis functions!
 Warning:  center 120 has no basis functions!
 Warning:  center 121 has no basis functions!
 Warning:  center 122 has no basis functions!
 Warning:  center 123 has no basis functions!
 Warning:  center 124 has no basis functions!
 Warning:  center 125 has no basis functions!
 Warning:  center 126 has no basis functions!
 Warning:  center 127 has no basis functions!
 Warning:  center 128 has no basis functions!
 Warning:  center 129 has no basis functions!
 Warning:  center 130 has no basis functions!
 Warning:  center 131 has no basis functions!
 Warning:  center 132 has no basis functions!
 Warning:  center 133 has no basis functions!
 Warning:  center 134 has no basis functions!
 Warning:  center 135 has no basis functions!
 Warning:  center 136 has no basis functions!
 Warning:  center 137 has no basis functions!
 Warning:  center 138 has no basis functions!
 Warning:  center 139 has no basis functions!
 Warning:  center 140 has no basis functions!
 Warning:  center 141 has no basis functions!
 Warning:  center 142 has no basis functions!
 Warning:  center 143 has no basis functions!
 Warning:  center 144 has no basis functions!
 Warning:  center 145 has no basis functions!
 Warning:  center 146 has no basis functions!
 Warning:  center 147 has no basis functions!
 Warning:  center 148 has no basis functions!
 Warning:  center 149 has no basis functions!
 Warning:  center 150 has no basis functions!
 Warning:  center 151 has no basis functions!
 Warning:  center 152 has no basis functions!
 Warning:  center 153 has no basis functions!
 Warning:  center 154 has no basis functions!
 Warning:  center 155 has no basis functions!
 Warning:  center 156 has no basis functions!
 Warning:  center 157 has no basis functions!
 Warning:  center 158 has no basis functions!
 Warning:  center 159 has no basis functions!
 Warning:  center 160 has no basis functions!
 Warning:  center 161 has no basis functions!
 Warning:  center 162 has no basis functions!
 Warning:  center 163 has no basis functions!
 Warning:  center 164 has no basis functions!
 Warning:  center 165 has no basis functions!
 Warning:  center 166 has no basis functions!
 Warning:  center 167 has no basis functions!
 Warning:  center 168 has no basis functions!
 Warning:  center 169 has no basis functions!
 Warning:  center 170 has no basis functions!
 Warning:  center 171 has no basis functions!
 Warning:  center 172 has no basis functions!
 Warning:  center 173 has no basis functions!
 Warning:  center 174 has no basis functions!
 Warning:  center 175 has no basis functions!
 Warning:  center 176 has no basis functions!
 Warning:  center 177 has no basis functions!
 Warning:  center 178 has no basis functions!
 Warning:  center 179 has no basis functions!
 Warning:  center 180 has no basis functions!
 Warning:  center 181 has no basis functions!
 Warning:  center 182 has no basis functions!
 Warning:  center 183 has no basis functions!
 Warning:  center 184 has no basis functions!
 Warning:  center 185 has no basis functions!
 Warning:  center 186 has no basis functions!
 Warning:  center 187 has no basis functions!
 Warning:  center 188 has no basis functions!
 Warning:  center 189 has no basis functions!
 Warning:  center 190 has no basis functions!
 Warning:  center 191 has no basis functions!
 Warning:  center 192 has no basis functions!
 Warning:  center 193 has no basis functions!
 Warning:  center 194 has no basis functions!
 Warning:  center 195 has no basis functions!
 Warning:  center 196 has no basis functions!
 Warning:  center 197 has no basis functions!
 Warning:  center 198 has no basis functions!
 Warning:  center 199 has no basis functions!
 Warning:  center 200 has no basis functions!
 Warning:  center 201 has no basis functions!
 Warning:  center 202 has no basis functions!
 Warning:  center 203 has no basis functions!
 Warning:  center 204 has no basis functions!
 Warning:  center 205 has no basis functions!
 Warning:  center 206 has no basis functions!
 Warning:  center 207 has no basis functions!
 Warning:  center 208 has no basis functions!
 Warning:  center 209 has no basis functions!
 Warning:  center 210 has no basis functions!
 Warning:  center 211 has no basis functions!
 Warning:  center 212 has no basis functions!
 Warning:  center 213 has no basis functions!
 Warning:  center 214 has no basis functions!
 Ernie: Thresh=  0.10000D-02 Tol=  0.10000D-05 Strict=F.
   147 basis functions,   252 primitive gaussians,   147 cartesian basis functions
    24 alpha electrons       24 beta electrons
       nuclear repulsion energy       258.8006732912 Hartrees.
 IExCor=  402 DFT=T Ex+Corr=B3LYP ExCW=0 ScaHFX=  0.200000
 ScaDFX=  0.800000  0.720000  1.000000  0.810000 ScalE2=  1.000000  1.000000
 IRadAn=      5 IRanWt=     -1 IRanGd=            0 ICorTp=0 IEmpDi=  4
 NAtoms=  214 NActive=  214 NUniq=  214 SFac= 1.00D+00 NAtFMM=   60 NAOKFM=T Big=T
 Integral buffers will be    131072 words long.
 Raffenetti 2 integral format.
 Two-electron integral symmetry is turned off.
 Leave Link  301 at Sun Aug  6 02:33:08 2023, MaxMem= 64424509440 cpu:               2.4 elap:               0.1
 (Enter /sob/g16/l302.exe)
 NPDir=0 NMtPBC=     1 NCelOv=     1 NCel=       1 NClECP=     1 NCelD=      1
         NCelK=      1 NCelE2=     1 NClLst=     1 CellRange=     0.0.
 One-electron integrals computed using PRISM.
 NBasis=   147 RedAO= T EigKep=  3.01D-06  NBF=   147
 NBsUse=   147 1.00D-06 EigRej= -1.00D+00 NBFU=   147
 Precomputing XC quadrature grid using
 IXCGrd= 4 IRadAn=           5 IRanWt=          -1 IRanGd=           0 AccXCQ= 0.00D+00.
 Generated NRdTot=       0 NPtTot=           0 NUsed=           0 NTot=          32
 NSgBfM=   147   147   147   147   147 MxSgAt=   214 MxSgA2=    14.
 Leave Link  302 at Sun Aug  6 02:33:08 2023, MaxMem= 64424509440 cpu:              15.8 elap:               0.3
 (Enter /sob/g16/l303.exe)
 DipDrv:  MaxL=1.
 Leave Link  303 at Sun Aug  6 02:33:08 2023, MaxMem= 64424509440 cpu:               1.8 elap:               0.0
 (Enter /sob/g16/l308.exe)
 Leave Link  308 at Sun Aug  6 02:33:08 2023, MaxMem= 64424509440 cpu:               2.3 elap:               0.1
 (Enter /sob/g16/l401.exe)
 ExpMin= 4.38D-02 ExpMax= 3.05D+03 ExpMxC= 4.57D+02 IAcc=3 IRadAn=         5 AccDes= 0.00D+00
 Harris functional with IExCor=  402 and IRadAn=       5 diagonalized for initial guess.
 HarFok:  IExCor=  402 AccDes= 0.00D+00 IRadAn=         5 IDoV= 1 UseB2=F ITyADJ=14
 ICtDFT=  3500011 ScaDFX=  1.000000  1.000000  1.000000  1.000000
 FoFCou: FMM=F IPFlag=           0 FMFlag=      100000 FMFlg1=        2001
         NFxFlg=           0 DoJE=T BraDBF=F KetDBF=T FulRan=T
         wScrn=  0.000000 ICntrl=       500 IOpCl=  0 I1Cent=   200000004 NGrid=           0
         NMat0=    1 NMatS0=      1 NMatT0=    0 NMatD0=    1 NMtDS0=    0 NMtDT0=    0
 Symmetry not used in FoFCou.
 Harris En= -270.698243723766    
 JPrj=0 DoOrth=F DoCkMO=F.
 Leave Link  401 at Sun Aug  6 02:33:09 2023, MaxMem= 64424509440 cpu:              21.2 elap:               0.3
 (Enter /sob/g16/l502.exe)
 Two-electron integral symmetry not used.
 Closed shell SCF:
 Using DIIS extrapolation, IDIIS=  1040.
 NGot= 64424509440 LenX= 64424440937 LenY= 64424418887
 Requested convergence on RMS density matrix=1.00D-08 within 128 cycles.
 Requested convergence on MAX density matrix=1.00D-06.
 Requested convergence on             energy=1.00D-06.
 No special actions if energy rises.
 Fock matrices will be formed incrementally for  20 cycles.

 Cycle   1  Pass 1  IDiag  1:
 FoFJK:  IHMeth= 1 ICntrl=       0 DoSepK=F KAlg= 0 I1Cent=           0 FoldK=F
 IRaf= 990000000 NMat=       1 IRICut=       1 DoRegI=T DoRafI=F ISym2E= 0 IDoP0=0 IntGTp=1.
 FoFCou: FMM=T IPFlag=           0 FMFlag=      100000 FMFlg1=        2001
         NFxFlg=           0 DoJE=F BraDBF=F KetDBF=F FulRan=T
         wScrn=  0.000000 ICntrl=         0 IOpCl=  0 I1Cent=           0 NGrid=           0
         NMat0=    1 NMatS0=      1 NMatT0=    0 NMatD0=    1 NMtDS0=    0 NMtDT0=    0
 Symmetry not used in FoFCou.
 FMM levels:  10  Number of levels for PrismC:   9
 E= -270.608943455862    
 DIIS: error= 2.47D-02 at cycle   1 NSaved=   1.
 NSaved= 1 IEnMin= 1 EnMin= -270.608943455862     IErMin= 1 ErrMin= 2.47D-02
 ErrMax= 2.47D-02  0.00D+00 EMaxC= 1.00D-01 BMatC= 7.13D-02 BMatP= 7.13D-02
 IDIUse=3 WtCom= 7.53D-01 WtEn= 2.47D-01
 Coeff-Com:  0.100D+01
 Coeff-En:   0.100D+01
 Coeff:      0.100D+01
 Gap=     0.209 Goal=   None    Shift=    0.000
 GapD=    0.209 DampG=1.000 DampE=0.500 DampFc=0.5000 IDamp=-1.
 Damping current iteration by 5.00D-01
 RMSDP=6.36D-03 MaxDP=6.89D-02              OVMax= 8.81D-02

 Cycle   2  Pass 1  IDiag  1:
 RMSU=  3.04D-03    CP:  9.71D-01
 E= -270.646605857937     Delta-E=       -0.037662402075 Rises=F Damp=T
 DIIS: error= 7.39D-03 at cycle   2 NSaved=   2.
 NSaved= 2 IEnMin= 2 EnMin= -270.646605857937     IErMin= 2 ErrMin= 7.39D-03
 ErrMax= 7.39D-03  0.00D+00 EMaxC= 1.00D-01 BMatC= 6.47D-03 BMatP= 7.13D-02
 IDIUse=3 WtCom= 9.26D-01 WtEn= 7.39D-02
 Coeff-Com: -0.157D+00 0.116D+01
 Coeff-En:   0.000D+00 0.100D+01
 Coeff:     -0.145D+00 0.115D+01
 Gap=     0.210 Goal=   None    Shift=    0.000
 RMSDP=5.55D-03 MaxDP=1.36D-01 DE=-3.77D-02 OVMax= 4.84D-02

 Cycle   3  Pass 1  IDiag  1:
 RMSU=  4.38D-03    CP:  8.62D-01  1.07D+00
 E= -270.681207387087     Delta-E=       -0.034601529150 Rises=F Damp=F
 DIIS: error= 3.96D-03 at cycle   3 NSaved=   3.
 NSaved= 3 IEnMin= 3 EnMin= -270.681207387087     IErMin= 3 ErrMin= 3.96D-03
 ErrMax= 3.96D-03  0.00D+00 EMaxC= 1.00D-01 BMatC= 1.34D-03 BMatP= 6.47D-03
 IDIUse=3 WtCom= 9.60D-01 WtEn= 3.96D-02
 Coeff-Com: -0.116D+00 0.371D+00 0.745D+00
 Coeff-En:   0.000D+00 0.000D+00 0.100D+01
 Coeff:     -0.111D+00 0.356D+00 0.755D+00
 Gap=     0.208 Goal=   None    Shift=    0.000
 RMSDP=1.70D-03 MaxDP=3.66D-02 DE=-3.46D-02 OVMax= 9.17D-03

 Cycle   4  Pass 1  IDiag  1:
 RMSU=  6.98D-04    CP:  8.87D-01  1.35D+00  7.60D-01
 E= -270.682583966314     Delta-E=       -0.001376579227 Rises=F Damp=F
 DIIS: error= 7.54D-04 at cycle   4 NSaved=   4.
 NSaved= 4 IEnMin= 4 EnMin= -270.682583966314     IErMin= 4 ErrMin= 7.54D-04
 ErrMax= 7.54D-04  0.00D+00 EMaxC= 1.00D-01 BMatC= 4.55D-05 BMatP= 1.34D-03
 IDIUse=3 WtCom= 9.92D-01 WtEn= 7.54D-03
 Coeff-Com: -0.231D-01 0.488D-01 0.213D+00 0.761D+00
 Coeff-En:   0.000D+00 0.000D+00 0.000D+00 0.100D+01
 Coeff:     -0.230D-01 0.485D-01 0.212D+00 0.763D+00
 Gap=     0.208 Goal=   None    Shift=    0.000
 RMSDP=2.09D-04 MaxDP=4.59D-03 DE=-1.38D-03 OVMax= 1.26D-03

 Cycle   5  Pass 1  IDiag  1:
 RMSU=  4.29D-05    CP:  8.84D-01  1.33D+00  7.86D-01  8.41D-01
 E= -270.682624403178     Delta-E=       -0.000040436864 Rises=F Damp=F
 DIIS: error= 1.45D-04 at cycle   5 NSaved=   5.
 NSaved= 5 IEnMin= 5 EnMin= -270.682624403178     IErMin= 5 ErrMin= 1.45D-04
 ErrMax= 1.45D-04  0.00D+00 EMaxC= 1.00D-01 BMatC= 9.28D-07 BMatP= 4.55D-05
 IDIUse=3 WtCom= 9.99D-01 WtEn= 1.45D-03
 Coeff-Com: -0.933D-02 0.190D-01 0.881D-01 0.324D+00 0.578D+00
 Coeff-En:   0.000D+00 0.000D+00 0.000D+00 0.000D+00 0.100D+01
 Coeff:     -0.932D-02 0.189D-01 0.880D-01 0.324D+00 0.579D+00
 Gap=     0.208 Goal=   None    Shift=    0.000
 RMSDP=2.53D-05 MaxDP=6.32D-04 DE=-4.04D-05 OVMax= 9.12D-04

 Cycle   6  Pass 1  IDiag  1:
 RMSU=  2.12D-05    CP:  8.83D-01  1.33D+00  7.87D-01  8.40D-01  7.14D-01
 E= -270.682624841186     Delta-E=       -0.000000438008 Rises=F Damp=F
 DIIS: error= 1.18D-04 at cycle   6 NSaved=   6.
 NSaved= 6 IEnMin= 6 EnMin= -270.682624841186     IErMin= 6 ErrMin= 1.18D-04
 ErrMax= 1.18D-04  0.00D+00 EMaxC= 1.00D-01 BMatC= 5.68D-07 BMatP= 9.28D-07
 IDIUse=3 WtCom= 9.99D-01 WtEn= 1.18D-03
 Coeff-Com: -0.698D-03 0.869D-03 0.835D-02 0.356D-01 0.433D+00 0.523D+00
 Coeff-En:   0.000D+00 0.000D+00 0.000D+00 0.000D+00 0.412D+00 0.588D+00
 Coeff:     -0.697D-03 0.868D-03 0.834D-02 0.356D-01 0.433D+00 0.523D+00
 Gap=     0.208 Goal=   None    Shift=    0.000
 RMSDP=1.22D-05 MaxDP=3.02D-04 DE=-4.38D-07 OVMax= 4.22D-04

 Cycle   7  Pass 1  IDiag  1:
 RMSU=  3.29D-06    CP:  8.83D-01  1.33D+00  7.88D-01  8.39D-01  8.41D-01
                    CP:  5.54D-01
 E= -270.682625557864     Delta-E=       -0.000000716678 Rises=F Damp=F
 DIIS: error= 7.74D-06 at cycle   7 NSaved=   7.
 NSaved= 7 IEnMin= 7 EnMin= -270.682625557864     IErMin= 7 ErrMin= 7.74D-06
 ErrMax= 7.74D-06  0.00D+00 EMaxC= 1.00D-01 BMatC= 6.53D-09 BMatP= 5.68D-07
 IDIUse=1 WtCom= 1.00D+00 WtEn= 0.00D+00
 Coeff-Com: -0.255D-03 0.218D-03 0.327D-02 0.148D-01 0.221D+00 0.277D+00
 Coeff-Com:  0.484D+00
 Coeff:     -0.255D-03 0.218D-03 0.327D-02 0.148D-01 0.221D+00 0.277D+00
 Coeff:      0.484D+00
 Gap=     0.208 Goal=   None    Shift=    0.000
 RMSDP=1.15D-06 MaxDP=2.41D-05 DE=-7.17D-07 OVMax= 3.78D-05

 Cycle   8  Pass 1  IDiag  1:
 RMSU=  9.91D-07    CP:  8.83D-01  1.33D+00  7.88D-01  8.39D-01  8.38D-01
                    CP:  5.73D-01  8.90D-01
 E= -270.682625564236     Delta-E=       -0.000000006372 Rises=F Damp=F
 DIIS: error= 2.35D-06 at cycle   8 NSaved=   8.
 NSaved= 8 IEnMin= 8 EnMin= -270.682625564236     IErMin= 8 ErrMin= 2.35D-06
 ErrMax= 2.35D-06  0.00D+00 EMaxC= 1.00D-01 BMatC= 5.37D-10 BMatP= 6.53D-09
 IDIUse=1 WtCom= 1.00D+00 WtEn= 0.00D+00
 Coeff-Com:  0.411D-04-0.877D-04-0.498D-03-0.163D-02-0.770D-02-0.529D-02
 Coeff-Com:  0.221D+00 0.794D+00
 Coeff:      0.411D-04-0.877D-04-0.498D-03-0.163D-02-0.770D-02-0.529D-02
 Coeff:      0.221D+00 0.794D+00
 Gap=     0.208 Goal=   None    Shift=    0.000
 RMSDP=3.13D-07 MaxDP=7.42D-06 DE=-6.37D-09 OVMax= 8.88D-06

 Cycle   9  Pass 1  IDiag  1:
 RMSU=  4.71D-08    CP:  8.83D-01  1.33D+00  7.88D-01  8.39D-01  8.40D-01
                    CP:  5.73D-01  9.52D-01  8.27D-01
 E= -270.682625564795     Delta-E=       -0.000000000558 Rises=F Damp=F
 DIIS: error= 1.74D-07 at cycle   9 NSaved=   9.
 NSaved= 9 IEnMin= 9 EnMin= -270.682625564795     IErMin= 9 ErrMin= 1.74D-07
 ErrMax= 1.74D-07  0.00D+00 EMaxC= 1.00D-01 BMatC= 2.31D-12 BMatP= 5.37D-10
 IDIUse=1 WtCom= 1.00D+00 WtEn= 0.00D+00
 Coeff-Com:  0.195D-04-0.407D-04-0.235D-03-0.777D-03-0.403D-02-0.307D-02
 Coeff-Com:  0.100D+00 0.364D+00 0.544D+00
 Coeff:      0.195D-04-0.407D-04-0.235D-03-0.777D-03-0.403D-02-0.307D-02
 Coeff:      0.100D+00 0.364D+00 0.544D+00
 Gap=     0.208 Goal=   None    Shift=    0.000
 RMSDP=1.70D-08 MaxDP=4.02D-07 DE=-5.58D-10 OVMax= 7.15D-07

 Cycle  10  Pass 1  IDiag  1:
 RMSU=  1.34D-08    CP:  8.83D-01  1.33D+00  7.88D-01  8.39D-01  8.40D-01
                    CP:  5.73D-01  9.53D-01  8.31D-01  8.81D-01
 E= -270.682625564799     Delta-E=       -0.000000000004 Rises=F Damp=F
 DIIS: error= 5.17D-08 at cycle  10 NSaved=  10.
 NSaved=10 IEnMin=10 EnMin= -270.682625564799     IErMin=10 ErrMin= 5.17D-08
 ErrMax= 5.17D-08  0.00D+00 EMaxC= 1.00D-01 BMatC= 2.23D-13 BMatP= 2.31D-12
 IDIUse=1 WtCom= 1.00D+00 WtEn= 0.00D+00
 Coeff-Com:  0.217D-06 0.611D-07-0.777D-06-0.362D-05-0.189D-03-0.274D-03
 Coeff-Com: -0.149D-02-0.342D-02 0.235D+00 0.770D+00
 Coeff:      0.217D-06 0.611D-07-0.777D-06-0.362D-05-0.189D-03-0.274D-03
 Coeff:     -0.149D-02-0.342D-02 0.235D+00 0.770D+00
 Gap=     0.208 Goal=   None    Shift=    0.000
 RMSDP=8.23D-09 MaxDP=1.99D-07 DE=-4.09D-12 OVMax= 1.73D-07

 SCF Done:  E(RB3LYP) =  -270.682625565     A.U. after   10 cycles
            NFock= 10  Conv=0.82D-08     -V/T= 2.0101
 KE= 2.679743915378D+02 PE=-1.133225240023D+03 EE= 3.357675496287D+02
 Leave Link  502 at Sun Aug  6 02:33:11 2023, MaxMem= 64424509440 cpu:             130.9 elap:               1.8
 (Enter /sob/g16/l801.exe)
 DoSCS=F DFT=T ScalE2(SS,OS)=  1.000000  1.000000
 Range of M.O.s used for correlation:     1   147
 NBasis=   147 NAE=    24 NBE=    24 NFC=     0 NFV=     0
 NROrb=    147 NOA=    24 NOB=    24 NVA=   123 NVB=   123

 **** Warning!!: The largest alpha MO coefficient is  0.20997860D+03

 Leave Link  801 at Sun Aug  6 02:33:11 2023, MaxMem= 64424509440 cpu:               1.5 elap:               0.0
 (Enter /sob/g16/l1002.exe)
 Minotr:  Closed shell wavefunction.
          Direct CPHF calculation.
          Differentiating once with respect to magnetic field using GIAOs.
          Electric field/nuclear overlap derivatives assumed to be zero.
          Requested convergence is 1.0D-08 RMS, and 1.0D-07 maximum.
          Secondary convergence is 1.0D-12 RMS, and 1.0D-12 maximum.
          NewPWx=T KeepS1=F KeepF1=F KeepIn=T MapXYZ=F SortEE=F KeepMc=T.
         5757 words used for storage of precomputed grid.
 Two-electron integral symmetry not used.
          MDV=   64424509440 using IRadAn=       1.
          Solving linear equations simultaneously, MaxMat=      96.
 FoFCou: FMM=F IPFlag=           0 FMFlag=      100000 FMFlg1=        2001
         NFxFlg=           0 DoJE=F BraDBF=F KetDBF=T FulRan=T
         wScrn=  0.000000 ICntrl=      6100 IOpCl=  0 I1Cent=           7 NGrid=         214
         NMat0=    1 NMatS0=      1 NMatT0=    0 NMatD0=    1 NMtDS0=    0 NMtDT0=    0
 Symmetry not used in FoFCou.
 FoFJK:  IHMeth= 1 ICntrl=    6127 DoSepK=F KAlg= 0 I1Cent=           0 FoldK=F
 IRaf=         1 NMat=       1 IRICut=       1 DoRegI=T DoRafI=F ISym2E= 0 IDoP0=0 IntGTp=1.
          There are     3 degrees of freedom in the 1st order CPHF.  IDoFFX=0 NUNeed=     3.
      3 vectors produced by pass  0 Test12= 9.84D-14 3.33D-08 XBig12= 8.74D+00 8.87D-01.
 AX will form     3 AO Fock derivatives at one time.
      3 vectors produced by pass  1 Test12= 9.84D-14 3.33D-08 XBig12= 8.02D-03 2.62D-02.
      3 vectors produced by pass  2 Test12= 9.84D-14 3.33D-08 XBig12= 1.01D-05 1.38D-03.
      3 vectors produced by pass  3 Test12= 9.84D-14 3.33D-08 XBig12= 2.19D-08 5.56D-05.
      3 vectors produced by pass  4 Test12= 9.84D-14 3.33D-08 XBig12= 5.90D-11 2.44D-06.
      2 vectors produced by pass  5 Test12= 9.84D-14 3.33D-08 XBig12= 1.63D-13 1.38D-07.
 InvSVY:  IOpt=1 It=  1 EMax= 2.32D-17
 Solved reduced A of dimension    17 with     3 vectors.
 Calculating GIAO nuclear magnetic shielding tensors.
 SCF GIAO Magnetic shielding tensor (ppm):
      1  C    Isotropic =    42.7517   Anisotropy =   195.4666
   XX=    17.8543   YX=     0.0000   ZX=    -0.0000
   XY=    -0.0000   YY=   -62.6620   ZY=    -0.0000
   XZ=     0.0000   YZ=    -0.0000   ZZ=   173.0628
   Eigenvalues:   -62.6620    17.8543   173.0628
      2  C    Isotropic =    42.6251   Anisotropy =   195.6568
   XX=   -31.5912   YX=   -39.0640   ZX=    -0.0000
   XY=   -39.1387   YY=   -13.5965   ZY=     0.0000
   XZ=    -0.0000   YZ=    -0.0000   ZZ=   173.0630
   Eigenvalues:   -62.7170    17.5293   173.0630
      3  C    Isotropic =    42.6336   Anisotropy =   195.5720
   XX=   -58.7403   YX=    17.4187   ZX=     0.0000
   XY=    17.4228   YY=    13.6261   ZY=    -0.0000
   XZ=     0.0000   YZ=    -0.0000   ZZ=   173.0149
   Eigenvalues:   -62.7156    17.6014   173.0149
      4  C    Isotropic =    42.6251   Anisotropy =   195.6568
   XX=   -31.5912   YX=    39.0640   ZX=     0.0000
   XY=    39.1387   YY=   -13.5965   ZY=    -0.0000
   XZ=     0.0000   YZ=     0.0000   ZZ=   173.0630
   Eigenvalues:   -62.7170    17.5293   173.0630
      5  C    Isotropic =    42.8439   Anisotropy =   195.3359
   XX=     2.5510   YX=    31.3037   ZX=    -0.0000
   XY=    31.3023   YY=   -47.0872   ZY=    -0.0000
   XZ=     0.0000   YZ=    -0.0000   ZZ=   173.0678
   Eigenvalues:   -62.2163    17.6802   173.0678
      6  C    Isotropic =    42.6336   Anisotropy =   195.5720
   XX=   -58.7403   YX=   -17.4187   ZX=     0.0000
   XY=   -17.4228   YY=    13.6261   ZY=     0.0000
   XZ=     0.0000   YZ=     0.0000   ZZ=   173.0149
   Eigenvalues:   -62.7156    17.6014   173.0149
[...]
   XY=     0.0000   YY=    -0.0496   ZY=    -0.0000
   XZ=    -0.0000   YZ=     0.0001   ZZ=     0.3915
   Eigenvalues:    -0.0496    -0.0495     0.3915
    213  Bq   Isotropic =     0.0946   Anisotropy =     0.4283
   XX=    -0.0482   YX=     0.0000   ZX=    -0.0000
   XY=     0.0000   YY=    -0.0483   ZY=    -0.0000
   XZ=    -0.0000   YZ=     0.0001   ZZ=     0.3801
   Eigenvalues:    -0.0483    -0.0482     0.3801
    214  Bq   Isotropic =     0.0918   Anisotropy =     0.4160
   XX=    -0.0468   YX=     0.0000   ZX=    -0.0000
   XY=     0.0000   YY=    -0.0469   ZY=    -0.0000
   XZ=    -0.0000   YZ=     0.0001   ZZ=     0.3691
   Eigenvalues:    -0.0469    -0.0468     0.3691
 End of Minotr F.D. properties file   721 does not exist.
 End of Minotr F.D. properties file   722 does not exist.
 End of Minotr F.D. properties file   788 does not exist.
 Leave Link 1002 at Sun Aug  6 02:33:13 2023, MaxMem= 64424509440 cpu:              80.1 elap:               2.0
 (Enter /sob/g16/l601.exe)
 Copying SCF densities to generalized density rwf, IOpCl= 0 IROHF=0.
 Hyperfine terms turned off by default for NAtoms > 100.

 **********************************************************************

            Population analysis using the SCF Density.

 **********************************************************************

 Alpha  occ. eigenvalues --  -10.42410 -10.42393 -10.42387 -10.42343 -10.42343
 Alpha  occ. eigenvalues --  -10.42309 -10.42302  -1.06278  -0.99250  -0.99237
 Alpha  occ. eigenvalues --   -0.87153  -0.87142  -0.73737  -0.73733  -0.73077
 Alpha  occ. eigenvalues --   -0.65652  -0.65651  -0.60021  -0.60020  -0.57747
 Alpha  occ. eigenvalues --   -0.55633  -0.55605  -0.49538  -0.49523
 Alpha virt. eigenvalues --   -0.28721  -0.28714  -0.14724  -0.11815  -0.11811
 Alpha virt. eigenvalues --   -0.09310  -0.09302  -0.08977  -0.08348  -0.08347
 Alpha virt. eigenvalues --   -0.08097  -0.05506  -0.05503  -0.04886  -0.04885
 Alpha virt. eigenvalues --   -0.01665  -0.01662  -0.00010  -0.00010   0.00688
 Alpha virt. eigenvalues --    0.00688   0.01431   0.03001   0.03011   0.05854
 Alpha virt. eigenvalues --    0.05855   0.05877   0.05896   0.07179   0.07179
 Alpha virt. eigenvalues --    0.09264   0.09272   0.10549   0.10557   0.13607
 Alpha virt. eigenvalues --    0.13610   0.13863   0.13865   0.16055   0.16064
 Alpha virt. eigenvalues --    0.20617   0.21993   0.22031   0.25646   0.25653
 Alpha virt. eigenvalues --    0.36156   0.43822   0.45346   0.48879   0.48891
 Alpha virt. eigenvalues --    0.51577   0.51580   0.53646   0.53648   0.55346
 Alpha virt. eigenvalues --    0.55348   0.60294   0.60297   0.60391   0.60406
 Alpha virt. eigenvalues --    0.62859   0.75168   0.75188   0.77665   0.77681
 Alpha virt. eigenvalues --    0.80697   0.81456   0.81458   0.83283   0.83307
 Alpha virt. eigenvalues --    0.84166   0.91366   0.91377   0.96535   0.96538
 Alpha virt. eigenvalues --    1.08377   1.08380   1.08572   1.08575   1.19106
 Alpha virt. eigenvalues --    1.19728   1.19763   1.26919   1.26921   1.33770
 Alpha virt. eigenvalues --    1.33808   1.47154   1.47156   1.56136   1.62447
 Alpha virt. eigenvalues --    1.62453   1.70772   1.74729   1.74754   1.84292
 Alpha virt. eigenvalues --    1.84341   1.90468   1.90518   1.91876   1.91931
 Alpha virt. eigenvalues --    1.99582   1.99596   2.18107   2.18231   2.23623
 Alpha virt. eigenvalues --    2.23709   2.35989   2.36035   2.44473   2.44493
 Alpha virt. eigenvalues --    2.50491   2.55656   2.55730   2.83182   3.04116
 Alpha virt. eigenvalues --    3.04161   3.95066   4.03866   4.03901   4.11289
 Alpha virt. eigenvalues --    4.11296   4.41632   4.41647
          Condensed to atoms (all electrons):
 Mulliken charges:
               1
     1  C   -0.109193
     2  C   -0.110319
     3  C   -0.109439
     4  C   -0.110319
     5  C   -0.109784
     6  C   -0.109439
     7  C   -0.109784
     8  H    0.252712
     9  H    0.252566
    10  H    0.252672
    11  H    0.252566
    12  H    0.252544
    13  H    0.252672
    14  H    0.252544
    15  Bq   0.000000
    16  Bq   0.000000
    17  Bq   0.000000
    18  Bq   0.000000
    19  Bq   0.000000
    20  Bq   0.000000
    21  Bq   0.000000
    22  Bq   0.000000
    23  Bq   0.000000
    24  Bq   0.000000
    25  Bq   0.000000
    26  Bq   0.000000
    27  Bq   0.000000
    28  Bq   0.000000
    29  Bq   0.000000
    30  Bq   0.000000
    31  Bq   0.000000
    32  Bq   0.000000
    33  Bq   0.000000
    34  Bq   0.000000
    35  Bq   0.000000
    36  Bq   0.000000
    37  Bq   0.000000
    38  Bq   0.000000
    39  Bq   0.000000
    40  Bq   0.000000
    41  Bq   0.000000
    42  Bq   0.000000
    43  Bq   0.000000
    44  Bq   0.000000
    45  Bq   0.000000
    46  Bq   0.000000
    47  Bq   0.000000
    48  Bq   0.000000
    49  Bq   0.000000
    50  Bq   0.000000
    51  Bq   0.000000
    52  Bq   0.000000
    53  Bq   0.000000
    54  Bq   0.000000
    55  Bq   0.000000
    56  Bq   0.000000
    57  Bq   0.000000
    58  Bq   0.000000
    59  Bq   0.000000
    60  Bq   0.000000
    61  Bq   0.000000
    62  Bq   0.000000
    63  Bq   0.000000
    64  Bq   0.000000
    65  Bq   0.000000
    66  Bq   0.000000
    67  Bq   0.000000
    68  Bq   0.000000
    69  Bq   0.000000
    70  Bq   0.000000
    71  Bq   0.000000
    72  Bq   0.000000
    73  Bq   0.000000
    74  Bq   0.000000
    75  Bq   0.000000
    76  Bq   0.000000
    77  Bq   0.000000
    78  Bq   0.000000
    79  Bq   0.000000
    80  Bq   0.000000
    81  Bq   0.000000
    82  Bq   0.000000
    83  Bq   0.000000
    84  Bq   0.000000
    85  Bq   0.000000
    86  Bq   0.000000
    87  Bq   0.000000
    88  Bq   0.000000
    89  Bq   0.000000
    90  Bq   0.000000
    91  Bq   0.000000
    92  Bq   0.000000
    93  Bq   0.000000
    94  Bq   0.000000
    95  Bq   0.000000
    96  Bq   0.000000
    97  Bq   0.000000
    98  Bq   0.000000
    99  Bq   0.000000
   100  Bq   0.000000
   101  Bq   0.000000
   102  Bq   0.000000
   103  Bq   0.000000
   104  Bq   0.000000
   105  Bq   0.000000
   106  Bq   0.000000
   107  Bq   0.000000
   108  Bq   0.000000
   109  Bq   0.000000
   110  Bq   0.000000
   111  Bq   0.000000
   112  Bq   0.000000
   113  Bq   0.000000
   114  Bq   0.000000
   115  Bq   0.000000
   116  Bq   0.000000
   117  Bq   0.000000
   118  Bq   0.000000
   119  Bq   0.000000
   120  Bq   0.000000
   121  Bq   0.000000
   122  Bq   0.000000
   123  Bq   0.000000
   124  Bq   0.000000
   125  Bq   0.000000
   126  Bq   0.000000
   127  Bq   0.000000
   128  Bq   0.000000
   129  Bq   0.000000
   130  Bq   0.000000
   131  Bq   0.000000
   132  Bq   0.000000
   133  Bq   0.000000
   134  Bq   0.000000
   135  Bq   0.000000
   136  Bq   0.000000
   137  Bq   0.000000
   138  Bq   0.000000
   139  Bq   0.000000
   140  Bq   0.000000
   141  Bq   0.000000
   142  Bq   0.000000
   143  Bq   0.000000
   144  Bq   0.000000
   145  Bq   0.000000
   146  Bq   0.000000
   147  Bq   0.000000
   148  Bq   0.000000
   149  Bq   0.000000
   150  Bq   0.000000
   151  Bq   0.000000
   152  Bq   0.000000
   153  Bq   0.000000
   154  Bq   0.000000
   155  Bq   0.000000
   156  Bq   0.000000
   157  Bq   0.000000
   158  Bq   0.000000
   159  Bq   0.000000
   160  Bq   0.000000
   161  Bq   0.000000
   162  Bq   0.000000
   163  Bq   0.000000
   164  Bq   0.000000
   165  Bq   0.000000
   166  Bq   0.000000
   167  Bq   0.000000
   168  Bq   0.000000
   169  Bq   0.000000
   170  Bq   0.000000
   171  Bq   0.000000
   172  Bq   0.000000
   173  Bq   0.000000
   174  Bq   0.000000
   175  Bq   0.000000
   176  Bq   0.000000
   177  Bq   0.000000
   178  Bq   0.000000
   179  Bq   0.000000
   180  Bq   0.000000
   181  Bq   0.000000
   182  Bq   0.000000
   183  Bq   0.000000
   184  Bq   0.000000
   185  Bq   0.000000
   186  Bq   0.000000
   187  Bq   0.000000
   188  Bq   0.000000
   189  Bq   0.000000
   190  Bq   0.000000
   191  Bq   0.000000
   192  Bq   0.000000
   193  Bq   0.000000
   194  Bq   0.000000
   195  Bq   0.000000
   196  Bq   0.000000
   197  Bq   0.000000
   198  Bq   0.000000
   199  Bq   0.000000
   200  Bq   0.000000
   201  Bq   0.000000
   202  Bq   0.000000
   203  Bq   0.000000
   204  Bq   0.000000
   205  Bq   0.000000
   206  Bq   0.000000
   207  Bq   0.000000
   208  Bq   0.000000
   209  Bq   0.000000
   210  Bq   0.000000
   211  Bq   0.000000
   212  Bq   0.000000
   213  Bq   0.000000
   214  Bq   0.000000
 Sum of Mulliken charges =   1.00000
 Mulliken charges with hydrogens summed into heavy atoms:
               1
     1  C    0.143520
     2  C    0.142247
     3  C    0.143233
     4  C    0.142247
     5  C    0.142760
     6  C    0.143233
     7  C    0.142760
    15  Bq   0.000000
    16  Bq   0.000000
    17  Bq   0.000000
    18  Bq   0.000000
    19  Bq   0.000000
    20  Bq   0.000000
    21  Bq   0.000000
    22  Bq   0.000000
    23  Bq   0.000000
    24  Bq   0.000000
    25  Bq   0.000000
    26  Bq   0.000000
    27  Bq   0.000000
    28  Bq   0.000000
    29  Bq   0.000000
    30  Bq   0.000000
    31  Bq   0.000000
    32  Bq   0.000000
    33  Bq   0.000000
    34  Bq   0.000000
    35  Bq   0.000000
    36  Bq   0.000000
    37  Bq   0.000000
    38  Bq   0.000000
    39  Bq   0.000000
    40  Bq   0.000000
    41  Bq   0.000000
    42  Bq   0.000000
    43  Bq   0.000000
    44  Bq   0.000000
    45  Bq   0.000000
    46  Bq   0.000000
    47  Bq   0.000000
    48  Bq   0.000000
    49  Bq   0.000000
    50  Bq   0.000000
    51  Bq   0.000000
    52  Bq   0.000000
    53  Bq   0.000000
    54  Bq   0.000000
    55  Bq   0.000000
    56  Bq   0.000000
    57  Bq   0.000000
    58  Bq   0.000000
    59  Bq   0.000000
    60  Bq   0.000000
    61  Bq   0.000000
    62  Bq   0.000000
    63  Bq   0.000000
    64  Bq   0.000000
    65  Bq   0.000000
    66  Bq   0.000000
    67  Bq   0.000000
    68  Bq   0.000000
    69  Bq   0.000000
    70  Bq   0.000000
    71  Bq   0.000000
    72  Bq   0.000000
    73  Bq   0.000000
    74  Bq   0.000000
    75  Bq   0.000000
    76  Bq   0.000000
    77  Bq   0.000000
    78  Bq   0.000000
    79  Bq   0.000000
    80  Bq   0.000000
    81  Bq   0.000000
    82  Bq   0.000000
    83  Bq   0.000000
    84  Bq   0.000000
    85  Bq   0.000000
    86  Bq   0.000000
    87  Bq   0.000000
    88  Bq   0.000000
    89  Bq   0.000000
    90  Bq   0.000000
    91  Bq   0.000000
    92  Bq   0.000000
    93  Bq   0.000000
    94  Bq   0.000000
    95  Bq   0.000000
    96  Bq   0.000000
    97  Bq   0.000000
    98  Bq   0.000000
    99  Bq   0.000000
   100  Bq   0.000000
   101  Bq   0.000000
   102  Bq   0.000000
   103  Bq   0.000000
   104  Bq   0.000000
   105  Bq   0.000000
   106  Bq   0.000000
   107  Bq   0.000000
   108  Bq   0.000000
   109  Bq   0.000000
   110  Bq   0.000000
   111  Bq   0.000000
   112  Bq   0.000000
   113  Bq   0.000000
   114  Bq   0.000000
   115  Bq   0.000000
   116  Bq   0.000000
   117  Bq   0.000000
   118  Bq   0.000000
   119  Bq   0.000000
   120  Bq   0.000000
   121  Bq   0.000000
   122  Bq   0.000000
   123  Bq   0.000000
   124  Bq   0.000000
   125  Bq   0.000000
   126  Bq   0.000000
   127  Bq   0.000000
   128  Bq   0.000000
   129  Bq   0.000000
   130  Bq   0.000000
   131  Bq   0.000000
   132  Bq   0.000000
   133  Bq   0.000000
   134  Bq   0.000000
   135  Bq   0.000000
   136  Bq   0.000000
   137  Bq   0.000000
   138  Bq   0.000000
   139  Bq   0.000000
   140  Bq   0.000000
   141  Bq   0.000000
   142  Bq   0.000000
   143  Bq   0.000000
   144  Bq   0.000000
   145  Bq   0.000000
   146  Bq   0.000000
   147  Bq   0.000000
   148  Bq   0.000000
   149  Bq   0.000000
   150  Bq   0.000000
   151  Bq   0.000000
   152  Bq   0.000000
   153  Bq   0.000000
   154  Bq   0.000000
   155  Bq   0.000000
   156  Bq   0.000000
   157  Bq   0.000000
   158  Bq   0.000000
   159  Bq   0.000000
   160  Bq   0.000000
   161  Bq   0.000000
   162  Bq   0.000000
   163  Bq   0.000000
   164  Bq   0.000000
   165  Bq   0.000000
   166  Bq   0.000000
   167  Bq   0.000000
   168  Bq   0.000000
   169  Bq   0.000000
   170  Bq   0.000000
   171  Bq   0.000000
   172  Bq   0.000000
   173  Bq   0.000000
   174  Bq   0.000000
   175  Bq   0.000000
   176  Bq   0.000000
   177  Bq   0.000000
   178  Bq   0.000000
   179  Bq   0.000000
   180  Bq   0.000000
   181  Bq   0.000000
   182  Bq   0.000000
   183  Bq   0.000000
   184  Bq   0.000000
   185  Bq   0.000000
   186  Bq   0.000000
   187  Bq   0.000000
   188  Bq   0.000000
   189  Bq   0.000000
   190  Bq   0.000000
   191  Bq   0.000000
   192  Bq   0.000000
   193  Bq   0.000000
   194  Bq   0.000000
   195  Bq   0.000000
   196  Bq   0.000000
   197  Bq   0.000000
   198  Bq   0.000000
   199  Bq   0.000000
   200  Bq   0.000000
   201  Bq   0.000000
   202  Bq   0.000000
   203  Bq   0.000000
   204  Bq   0.000000
   205  Bq   0.000000
   206  Bq   0.000000
   207  Bq   0.000000
   208  Bq   0.000000
   209  Bq   0.000000
   210  Bq   0.000000
   211  Bq   0.000000
   212  Bq   0.000000
   213  Bq   0.000000
   214  Bq   0.000000
 Electronic spatial extent (au):  <R**2>=            637.2279
 Charge=              1.0000 electrons
 Dipole moment (field-independent basis, Debye):
    X=              0.0000    Y=              0.0005    Z=             -0.0000  Tot=              0.0005
 Quadrupole moment (field-independent basis, Debye-Ang):
   XX=            -22.9431   YY=            -22.9604   ZZ=            -41.9903
   XY=             -0.0000   XZ=             -0.0000   YZ=              0.0000
 Traceless Quadrupole moment (field-independent basis, Debye-Ang):
   XX=              6.3548   YY=              6.3375   ZZ=            -12.6923
   XY=             -0.0000   XZ=             -0.0000   YZ=              0.0000
 Octapole moment (field-independent basis, Debye-Ang**2):
  XXX=              0.0000  YYY=              0.0200  ZZZ=             -0.0000  XYY=             -0.0000
  XXY=             -0.0118  XXZ=              0.0000  XZZ=              0.0000  YZZ=             -0.0039
  YYZ=             -0.0000  XYZ=             -0.0000
 Hexadecapole moment (field-independent basis, Debye-Ang**3):
 XXXX=           -313.3596 YYYY=           -313.4658 ZZZZ=            -45.6496 XXXY=             -0.0000
 XXXZ=             -0.0000 YYYX=             -0.0000 YYYZ=              0.0000 ZZZX=             -0.0000
 ZZZY=             -0.0000 XXYY=           -104.5009 XXZZ=            -80.3812 YYZZ=            -80.3758
 XXYZ=             -0.0000 YYXZ=              0.0000 ZZXY=             -0.0000
 N-N= 2.588006732912D+02 E-N=-1.133225240390D+03  KE= 2.679743915378D+02
 Leave Link  601 at Sun Aug  6 02:33:13 2023, MaxMem= 64424509440 cpu:               2.1 elap:               0.1
 (Enter /sob/g16/l9999.exe)

 Test job not archived.
 1\1\GINC-7R32\SP\RB3LYP\6-31+G(d)\C7H7(1+)\ROOT\06-Aug-2023\0\\#p b3ly
 p/6-31+G* NMR geom=connectivity\\template file\\1,1\C,0,0.,1.612,0.\C,
 0,1.26,1.005,0.\C,0,1.572,-0.359,0.\C,0,-1.26,1.005,0.\C,0,0.699,-1.45
 2,0.\C,0,-1.572,-0.359,0.\C,0,-0.699,-1.452,0.\H,0,0.,2.7,0.\H,0,2.111
 ,1.683,0.\H,0,2.632,-0.601,0.\H,0,-2.111,1.683,0.\H,0,1.171,-2.432,0.\
 H,0,-2.632,-0.601,0.\H,0,-1.171,-2.432,0.\Bq,0,0.,0.,-10.\Bq,0,0.,0.,-
 9.899497\Bq,0,0.,0.,-9.798995\Bq,0,0.,0.,-9.698492\Bq,0,0.,0.,-9.59799
 \Bq,0,0.,0.,-9.497487\Bq,0,0.,0.,-9.396985\Bq,0,0.,0.,-9.296482\Bq,0,0
 .,0.,-9.19598\Bq,0,0.,0.,-9.095477\Bq,0,0.,0.,-8.994975\Bq,0,0.,0.,-8.
 894472\Bq,0,0.,0.,-8.79397\Bq,0,0.,0.,-8.693467\Bq,0,0.,0.,-8.592965\B
 q,0,0.,0.,-8.492462\Bq,0,0.,0.,-8.39196\Bq,0,0.,0.,-8.291457\Bq,0,0.,0
 .,-8.190955\Bq,0,0.,0.,-8.090452\Bq,0,0.,0.,-7.98995\Bq,0,0.,0.,-7.889
 447\Bq,0,0.,0.,-7.788945\Bq,0,0.,0.,-7.688442\Bq,0,0.,0.,-7.58794\Bq,0
 ,0.,0.,-7.487437\Bq,0,0.,0.,-7.386935\Bq,0,0.,0.,-7.286432\Bq,0,0.,0.,
 -7.18593\Bq,0,0.,0.,-7.085427\Bq,0,0.,0.,-6.984925\Bq,0,0.,0.,-6.88442
 2\Bq,0,0.,0.,-6.78392\Bq,0,0.,0.,-6.683417\Bq,0,0.,0.,-6.582915\Bq,0,0
 .,0.,-6.482412\Bq,0,0.,0.,-6.38191\Bq,0,0.,0.,-6.281407\Bq,0,0.,0.,-6.
 180905\Bq,0,0.,0.,-6.080402\Bq,0,0.,0.,-5.979899\Bq,0,0.,0.,-5.879397\
 Bq,0,0.,0.,-5.778894\Bq,0,0.,0.,-5.678392\Bq,0,0.,0.,-5.577889\Bq,0,0.
 ,0.,-5.477387\Bq,0,0.,0.,-5.376884\Bq,0,0.,0.,-5.276382\Bq,0,0.,0.,-5.
 175879\Bq,0,0.,0.,-5.075377\Bq,0,0.,0.,-4.974874\Bq,0,0.,0.,-4.874372\
 Bq,0,0.,0.,-4.773869\Bq,0,0.,0.,-4.673367\Bq,0,0.,0.,-4.572864\Bq,0,0.
 ,0.,-4.472362\Bq,0,0.,0.,-4.371859\Bq,0,0.,0.,-4.271357\Bq,0,0.,0.,-4.
 170854\Bq,0,0.,0.,-4.070352\Bq,0,0.,0.,-3.969849\Bq,0,0.,0.,-3.869347\
 Bq,0,0.,0.,-3.768844\Bq,0,0.,0.,-3.668342\Bq,0,0.,0.,-3.567839\Bq,0,0.
 ,0.,-3.467337\Bq,0,0.,0.,-3.366834\Bq,0,0.,0.,-3.266332\Bq,0,0.,0.,-3.
 165829\Bq,0,0.,0.,-3.065327\Bq,0,0.,0.,-2.964824\Bq,0,0.,0.,-2.864322\
 Bq,0,0.,0.,-2.763819\Bq,0,0.,0.,-2.663317\Bq,0,0.,0.,-2.562814\Bq,0,0.
 ,0.,-2.462312\Bq,0,0.,0.,-2.361809\Bq,0,0.,0.,-2.261307\Bq,0,0.,0.,-2.
 160804\Bq,0,0.,0.,-2.060302\Bq,0,0.,0.,-1.959799\Bq,0,0.,0.,-1.859296\
 Bq,0,0.,0.,-1.758794\Bq,0,0.,0.,-1.658291\Bq,0,0.,0.,-1.557789\Bq,0,0.
 ,0.,-1.457286\Bq,0,0.,0.,-1.356784\Bq,0,0.,0.,-1.256281\Bq,0,0.,0.,-1.
 155779\Bq,0,0.,0.,-1.055276\Bq,0,0.,0.,-0.954774\Bq,0,0.,0.,-0.854271\
 Bq,0,0.,0.,-0.753769\Bq,0,0.,0.,-0.653266\Bq,0,0.,0.,-0.552764\Bq,0,0.
 ,0.,-0.452261\Bq,0,0.,0.,-0.351759\Bq,0,0.,0.,-0.251256\Bq,0,0.,0.,-0.
 150754\Bq,0,0.,0.,-0.050251\Bq,0,0.,0.,0.050251\Bq,0,0.,0.,0.150754\Bq
 ,0,0.,0.,0.251256\Bq,0,0.,0.,0.351759\Bq,0,0.,0.,0.452261\Bq,0,0.,0.,0
 .552764\Bq,0,0.,0.,0.653266\Bq,0,0.,0.,0.753769\Bq,0,0.,0.,0.854271\Bq
 ,0,0.,0.,0.954774\Bq,0,0.,0.,1.055276\Bq,0,0.,0.,1.155779\Bq,0,0.,0.,1
 .256281\Bq,0,0.,0.,1.356784\Bq,0,0.,0.,1.457286\Bq,0,0.,0.,1.557789\Bq
 ,0,0.,0.,1.658291\Bq,0,0.,0.,1.758794\Bq,0,0.,0.,1.859296\Bq,0,0.,0.,1
 .959799\Bq,0,0.,0.,2.060302\Bq,0,0.,0.,2.160804\Bq,0,0.,0.,2.261307\Bq
 ,0,0.,0.,2.361809\Bq,0,0.,0.,2.462312\Bq,0,0.,0.,2.562814\Bq,0,0.,0.,2
 .663317\Bq,0,0.,0.,2.763819\Bq,0,0.,0.,2.864322\Bq,0,0.,0.,2.964824\Bq
 ,0,0.,0.,3.065327\Bq,0,0.,0.,3.165829\Bq,0,0.,0.,3.266332\Bq,0,0.,0.,3
 .366834\Bq,0,0.,0.,3.467337\Bq,0,0.,0.,3.567839\Bq,0,0.,0.,3.668342\Bq
 ,0,0.,0.,3.768844\Bq,0,0.,0.,3.869347\Bq,0,0.,0.,3.969849\Bq,0,0.,0.,4
 .070352\Bq,0,0.,0.,4.170854\Bq,0,0.,0.,4.271357\Bq,0,0.,0.,4.371859\Bq
 ,0,0.,0.,4.472362\Bq,0,0.,0.,4.572864\Bq,0,0.,0.,4.673367\Bq,0,0.,0.,4
 .773869\Bq,0,0.,0.,4.874372\Bq,0,0.,0.,4.974874\Bq,0,0.,0.,5.075377\Bq
 ,0,0.,0.,5.175879\Bq,0,0.,0.,5.276382\Bq,0,0.,0.,5.376884\Bq,0,0.,0.,5
 .477387\Bq,0,0.,0.,5.577889\Bq,0,0.,0.,5.678392\Bq,0,0.,0.,5.778894\Bq
 ,0,0.,0.,5.879397\Bq,0,0.,0.,5.979899\Bq,0,0.,0.,6.080402\Bq,0,0.,0.,6
 .180905\Bq,0,0.,0.,6.281407\Bq,0,0.,0.,6.38191\Bq,0,0.,0.,6.482412\Bq,
 0,0.,0.,6.582915\Bq,0,0.,0.,6.683417\Bq,0,0.,0.,6.78392\Bq,0,0.,0.,6.8
 84422\Bq,0,0.,0.,6.984925\Bq,0,0.,0.,7.085427\Bq,0,0.,0.,7.18593\Bq,0,
 0.,0.,7.286432\Bq,0,0.,0.,7.386935\Bq,0,0.,0.,7.487437\Bq,0,0.,0.,7.58
 794\Bq,0,0.,0.,7.688442\Bq,0,0.,0.,7.788945\Bq,0,0.,0.,7.889447\Bq,0,0
 .,0.,7.98995\Bq,0,0.,0.,8.090452\Bq,0,0.,0.,8.190955\Bq,0,0.,0.,8.2914
 57\Bq,0,0.,0.,8.39196\Bq,0,0.,0.,8.492462\Bq,0,0.,0.,8.592965\Bq,0,0.,
 0.,8.693467\Bq,0,0.,0.,8.79397\Bq,0,0.,0.,8.894472\Bq,0,0.,0.,8.994975
 \Bq,0,0.,0.,9.095477\Bq,0,0.,0.,9.19598\Bq,0,0.,0.,9.296482\Bq,0,0.,0.
 ,9.396985\Bq,0,0.,0.,9.497487\Bq,0,0.,0.,9.59799\Bq,0,0.,0.,9.698492\B
 q,0,0.,0.,9.798995\Bq,0,0.,0.,9.899497\Bq,0,0.,0.,10.\\Version=ES64L-G
 16RevC.02\HF=-270.6826256\RMSD=8.227e-09\Dipole=0.,0.0002121,0.\Quadru
 pole=4.7246429,4.7117897,-9.4364327,0.,0.,0.\PG=C01 [X(C7H7)]\\@


 Just remember, when you're over the hill, you begin to pick up speed.
 -- Charles Schulz
 Job cpu time:       0 days  0 hours  4 minutes 26.9 seconds.
 Elapsed time:       0 days  0 hours  0 minutes  5.0 seconds.
 File lengths (MBytes):  RWF=     19 Int=      0 D2E=      0 Chk=      3 Scr=      1
 Normal termination of Gaussian 16 at Sun Aug  6 02:33:13 2023.
