 Entering Gaussian System, Link 0=g16
 Initial command:
 /sob/g16/l1.exe "/PM9A1/gauscr/Gau-208398.inp" -scrdir="/PM9A1/gauscr/"
 Default is to use a total of  96 processors:
                               96 via shared-memory
                                1 via Linda
 Entering Link 1 = /sob/g16/l1.exe PID=    208400.
  
 Copyright (c) 1988-2021, Gaussian, Inc.  All Rights Reserved.
  
 This is part of the Gaussian(R) 16 program.  It is based on
 the Gaussian(R) 09 system (copyright 2009, Gaussian, Inc.),
 the Gaussian(R) 03 system (copyright 2003, Gaussian, Inc.),
 the Gaussian(R) 98 system (copyright 1998, Gaussian, Inc.),
 the Gaussian(R) 94 system (copyright 1995, Gaussian, Inc.),
 the Gaussian 92(TM) system (copyright 1992, Gaussian, Inc.),
 the Gaussian 90(TM) system (copyright 1990, Gaussian, Inc.),
 the Gaussian 88(TM) system (copyright 1988, Gaussian, Inc.),
 the Gaussian 86(TM) system (copyright 1986, Carnegie Mellon
 University), and the Gaussian 82(TM) system (copyright 1983,
 Carnegie Mellon University). Gaussian is a federally registered
 trademark of Gaussian, Inc.
  
 This software contains proprietary and confidential information,
 including trade secrets, belonging to Gaussian, Inc.
  
 This software is provided under written license and may be
 used, copied, transmitted, or stored only in accord with that
 written license.
  
 The following legend is applicable only to US Government
 contracts under FAR:
  
                    RESTRICTED RIGHTS LEGEND
  
 Use, reproduction and disclosure by the US Government is
 subject to restrictions as set forth in subparagraphs (a)
 and (c) of the Commercial Computer Software - Restricted
 Rights clause in FAR 52.227-19.
  
 Gaussian, Inc.
 340 Quinnipiac St., Bldg. 40, Wallingford CT 06492
  
  
 ---------------------------------------------------------------
 Warning -- This program may not be used in any manner that
 competes with the business of Gaussian, Inc. or will provide
 assistance to any competitor of Gaussian, Inc.  The licensee
 of this program is prohibited from giving any competitor of
 Gaussian, Inc. access to this program.  By using this program,
 the user acknowledges that Gaussian, Inc. is engaged in the
 business of creating and licensing software in the field of
 computational chemistry and represents and warrants to the
 licensee that it is not a competitor of Gaussian, Inc. and that
 it will not use this program in any manner prohibited above.
 ---------------------------------------------------------------
  

 Cite this work as:
 Gaussian 16, Revision C.02,
 M. J. Frisch, G. W. Trucks, H. B. Schlegel, G. E. Scuseria, 
 M. A. Robb, J. R. Cheeseman, G. Scalmani, V. Barone, 
 G. A. Petersson, H. Nakatsuji, X. Li, M. Caricato, A. V. Marenich, 
 J. Bloino, B. G. Janesko, R. Gomperts, B. Mennucci, H. P. Hratchian, 
 J. V. Ortiz, A. F. Izmaylov, J. L. Sonnenberg, D. Williams-Young, 
 F. Ding, F. Lipparini, F. Egidi, J. Goings, B. Peng, A. Petrone, 
 T. Henderson, D. Ranasinghe, V. G. Zakrzewski, J. Gao, N. Rega, 
 G. Zheng, W. Liang, M. Hada, M. Ehara, K. Toyota, R. Fukuda, 
 J. Hasegawa, M. Ishida, T. Nakajima, Y. Honda, O. Kitao, H. Nakai, 
 T. Vreven, K. Throssell, J. A. Montgomery, Jr., J. E. Peralta, 
 F. Ogliaro, M. J. Bearpark, J. J. Heyd, E. N. Brothers, K. N. Kudin, 
 V. N. Staroverov, T. A. Keith, R. Kobayashi, J. Normand, 
 K. Raghavachari, A. P. Rendell, J. C. Burant, S. S. Iyengar, 
 J. Tomasi, M. Cossi, J. M. Millam, M. Klene, C. Adamo, R. Cammi, 
 J. W. Ochterski, R. L. Martin, K. Morokuma, O. Farkas, 
 J. B. Foresman, and D. J. Fox, Gaussian, Inc., Wallingford CT, 2019.
 
 ******************************************
 Gaussian 16:  ES64L-G16RevC.02  7-Dec-2021
                 6-Aug-2023 
 ******************************************
 Default route: IOp(8/117=-99) IOp(7/127=-99) scf=noincore
 --------------------------------------
 #p b3lyp/6-31+G* NMR geom=connectivity
 --------------------------------------
 1/38=1,57=2,172=1/1;
 2/12=2,17=6,18=5,40=1/2;
 3/5=1,6=6,7=11,11=2,25=1,30=1,74=-5/1,2,3,8;
 4//1;
 5/5=2,38=5/2;
 8/6=1,10=90,11=11,117=-99/1;
 10/13=100,45=16/2;
 6/7=2,8=2,9=2,10=2,28=1/1;
 99/9=1/99;
 Leave Link    1 at Sun Aug  6 07:09:33 2023, MaxMem=           0 cpu:               1.7 elap:               0.0
 (Enter /sob/g16/l101.exe)
 -------------
 template file
 -------------
 Symbolic Z-matrix:
 Charge =  0 Multiplicity = 1
 C                    -1.752     1.338     1.272 
 H                    -1.892     1.42      2.344 
 C                    -1.928     2.42      0.465 
 H                    -2.234     3.376     0.881 
 C                    -1.642     2.348    -0.926 
 C                    -1.727     3.522    -1.713 
 H                    -2.03      4.453    -1.24 
 C                    -1.48      3.457    -3.048 
 H                    -1.612     4.328    -3.685 
 C                    -1.001     2.26     -3.646 
 C                    -0.794     2.272    -5.05 
 H                    -1.02      3.181    -5.602 
 C                    -0.398     1.142    -5.683 
 H                    -0.329     1.098    -6.767 
 C                     0.        0.       -4.938 
 C                     0.398    -1.142    -5.683 
 H                     0.329    -1.098    -6.767 
 C                     0.794    -2.272    -5.05 
 H                     1.02     -3.181    -5.602 
 C                     1.001    -2.26     -3.646 
 C                     1.48     -3.457    -3.048 
 H                     1.612    -4.328    -3.685 
 C                     1.727    -3.522    -1.713 
 H                     2.03     -4.453    -1.24 
 C                     1.642    -2.348    -0.926 
 C                     1.928    -2.42      0.465 
 H                     2.234    -3.376     0.881 
 C                     1.752    -1.338     1.272 
 H                     1.892    -1.42      2.344 
 C                     1.477    -0.064     0.706 
 C                     1.283     1.108     1.519 
 C                     0.759     1.086     2.87 
 C                     0.        0.        3.509 
 C                    -0.759    -1.086     2.87 
 C                    -1.283    -1.108     1.519 
 C                    -1.477     0.064     0.706 
 C                    -1.477    -0.064    -0.706 
 C                    -1.283     1.108    -1.519 
 C                    -0.759     1.086    -2.87 
 C                     0.        0.       -3.509 
 C                     0.759    -1.086    -2.87 
 C                     1.283    -1.108    -1.519 
 C                     1.477     0.064    -0.706 
 C                     1.752     1.338    -1.272 
 H                     1.892     1.42     -2.344 
 C                     1.928     2.42     -0.465 
 H                     2.234     3.376    -0.881 
 C                     1.642     2.348     0.926 
 C                     1.727     3.522     1.713 
 H                     2.03      4.453     1.24 
 C                     1.48      3.457     3.048 
 H                     1.612     4.328     3.685 
 C                     1.001     2.26      3.646 
 C                     0.794     2.272     5.05 
 H                     1.02      3.181     5.602 
 C                     0.398     1.142     5.683 
 H                     0.329     1.098     6.767 
 C                     0.        0.        4.938 
 C                    -0.398    -1.142     5.683 
 H                    -0.329    -1.098     6.767 
 C                    -0.794    -2.272     5.05 
 H                    -1.02     -3.181     5.602 
 C                    -1.001    -2.26      3.646 
 C                    -1.48     -3.457     3.048 
 H                    -1.612    -4.328     3.685 
 C                    -1.727    -3.522     1.713 
 H                    -2.03     -4.453     1.24 
 C                    -1.642    -2.348     0.926 
 C                    -1.928    -2.42     -0.465 
 H                    -2.234    -3.376    -0.881 
 C                    -1.752    -1.338    -1.272 
 H                    -1.892    -1.42     -2.344 
 Bq                   -11.40582   0.19025   1.44935 
 Bq                   -11.30671   0.17619   1.4359 
 Bq                   -11.20759   0.16212   1.42245 
 Bq                   -11.10847   0.14805   1.409 
 Bq                   -11.00935   0.13399   1.39556 
 Bq                   -10.91023   0.11992   1.38211 
 Bq                   -10.81112   0.10585   1.36866 
 Bq                   -10.712    0.09179   1.35521 
 Bq                   -10.61288   0.07772   1.34176 
 Bq                   -10.51376   0.06365   1.32832 
 Bq                   -10.41465   0.04959   1.31487 
 Bq                   -10.31553   0.03552   1.30142 
 Bq                   -10.21641   0.02146   1.28797 
 Bq                   -10.11729   0.00739   1.27452 
 Bq                   -10.01817  -0.00668   1.26108 
 Bq                   -9.91906  -0.02075   1.24763 
 Bq                   -9.81994  -0.03481   1.23418 
 Bq                   -9.72082  -0.04888   1.22073 
 Bq                   -9.6217   -0.06294   1.20728 
 Bq                   -9.52259  -0.07701   1.19384 
 Bq                   -9.42347  -0.09108   1.18039 
 Bq                   -9.32435  -0.10514   1.16694 
 Bq                   -9.22523  -0.11921   1.15349 
 Bq                   -9.12612  -0.13328   1.14004 
 Bq                   -9.027    -0.14734   1.1266 
 Bq                   -8.92788  -0.16141   1.11315 
 Bq                   -8.82876  -0.17548   1.0997 
 Bq                   -8.72964  -0.18954   1.08625 
 Bq                   -8.63053  -0.20361   1.0728 
 Bq                   -8.53141  -0.21768   1.05936 
 Bq                   -8.43229  -0.23174   1.04591 
 Bq                   -8.33317  -0.24581   1.03246 
 Bq                   -8.23405  -0.25988   1.01901 
 Bq                   -8.13494  -0.27394   1.00557 
 Bq                   -8.03582  -0.28801   0.99212 
 Bq                   -7.9367   -0.30208   0.97867 
 Bq                   -7.83758  -0.31614   0.96522 
 Bq                   -7.73847  -0.33021   0.95177 
 Bq                   -7.63935  -0.34428   0.93833 
 Bq                   -7.54023  -0.35834   0.92488 
 Bq                   -7.44111  -0.37241   0.91143 
 Bq                   -7.34199  -0.38648   0.89798 
 Bq                   -7.24288  -0.40054   0.88453 
 Bq                   -7.14376  -0.41461   0.87109 
 Bq                   -7.04464  -0.42867   0.85764 
 Bq                   -6.94552  -0.44274   0.84419 
 Bq                   -6.84641  -0.45681   0.83074 
 Bq                   -6.74729  -0.47087   0.81729 
 Bq                   -6.64817  -0.48494   0.80385 
 Bq                   -6.54905  -0.49901   0.7904 
 Bq                   -6.44994  -0.51307   0.77695 
 Bq                   -6.35082  -0.52714   0.7635 
 Bq                   -6.2517   -0.54121   0.75005 
 Bq                   -6.15258  -0.55527   0.73661 
 Bq                   -6.05347  -0.56934   0.72316 
 Bq                   -5.95435  -0.58341   0.70971 
 Bq                   -5.85523  -0.59747   0.69626 
 Bq                   -5.75611  -0.61154   0.68281 
 Bq                   -5.65699  -0.62561   0.66937 
 Bq                   -5.55788  -0.63967   0.65592 
 Bq                   -5.45876  -0.65374   0.64247 
 Bq                   -5.35964  -0.66781   0.62902 
 Bq                   -5.26052  -0.68187   0.61557 
 Bq                   -5.16141  -0.69594   0.60213 
 Bq                   -5.06229  -0.71001   0.58868 
 Bq                   -4.96317  -0.72407   0.57523 
 Bq                   -4.86405  -0.73814   0.56178 
 Bq                   -4.76493  -0.7522    0.54833 
 Bq                   -4.66582  -0.76627   0.53489 
 Bq                   -4.5667   -0.78034   0.52144 
 Bq                   -4.46758  -0.7944    0.50799 
 Bq                   -4.36846  -0.80847   0.49454 
 Bq                   -4.26935  -0.82254   0.4811 
 Bq                   -4.17023  -0.8366    0.46765 
 Bq                   -4.07111  -0.85067   0.4542 
 Bq                   -3.97199  -0.86474   0.44075 
 Bq                   -3.87288  -0.8788    0.4273 
 Bq                   -3.77376  -0.89287   0.41386 
 Bq                   -3.67464  -0.90694   0.40041 
 Bq                   -3.57552  -0.921     0.38696 
 Bq                   -3.4764   -0.93507   0.37351 
 Bq                   -3.37729  -0.94914   0.36006 
 Bq                   -3.27817  -0.9632    0.34662 
 Bq                   -3.17905  -0.97727   0.33317 
 Bq                   -3.07993  -0.99134   0.31972 
 Bq                   -2.98082  -1.0054    0.30627 
 Bq                   -2.8817   -1.01947   0.29282 
 Bq                   -2.78258  -1.03354   0.27938 
 Bq                   -2.68346  -1.0476    0.26593 
 Bq                   -2.58434  -1.06167   0.25248 
 Bq                   -2.48523  -1.07574   0.23903 
 Bq                   -2.38611  -1.0898    0.22558 
 Bq                   -2.28699  -1.10387   0.21214 
 Bq                   -2.18787  -1.11793   0.19869 
 Bq                   -2.08875  -1.132     0.18524 
 Bq                   -1.98964  -1.14607   0.17179 
 Bq                   -1.89052  -1.16013   0.15834 
 Bq                   -1.7914   -1.1742    0.1449 
 Bq                   -1.69228  -1.18827   0.13145 
 Bq                   -1.59317  -1.20233   0.118 
 
 ITRead=  0  0  0  0  0  0  0  0  0  0  0  0  0  0  0  0  0  0  0  0
 ITRead=  0  0  0  0  0  0  0  0  0  0  0  0  0  0  0  0  0  0  0  0
 ITRead=  0  0  0  0  0  0  0  0  0  0  0  0  0  0  0  0  0  0  0  0
 ITRead=  0  0  0  0  0  0  0  0  0  0  0  0  0  0  0  0  0  0  0  0
 ITRead=  0  0  0  0  0  0  0  0  0  0  0  0  0  0  0  0  0  0  0  0
 ITRead=  0  0  0  0  0  0  0  0  0  0  0  0  0  0  0  0  0  0  0  0
 ITRead=  0  0  0  0  0  0  0  0  0  0  0  0  0  0  0  0  0  0  0  0
 ITRead=  0  0  0  0  0  0  0  0  0  0  0  0  0  0  0  0  0  0  0  0
 ITRead=  0  0  0  0  0  0  0  0  0  0  0  0
 MicOpt= -1 -1 -1 -1 -1 -1 -1 -1 -1 -1 -1 -1 -1 -1 -1 -1 -1 -1 -1 -1
 MicOpt= -1 -1 -1 -1 -1 -1 -1 -1 -1 -1 -1 -1 -1 -1 -1 -1 -1 -1 -1 -1
 MicOpt= -1 -1 -1 -1 -1 -1 -1 -1 -1 -1 -1 -1 -1 -1 -1 -1 -1 -1 -1 -1
 MicOpt= -1 -1 -1 -1 -1 -1 -1 -1 -1 -1 -1 -1 -1 -1 -1 -1 -1 -1 -1 -1
 MicOpt= -1 -1 -1 -1 -1 -1 -1 -1 -1 -1 -1 -1 -1 -1 -1 -1 -1 -1 -1 -1
 MicOpt= -1 -1 -1 -1 -1 -1 -1 -1 -1 -1 -1 -1 -1 -1 -1 -1 -1 -1 -1 -1
 MicOpt= -1 -1 -1 -1 -1 -1 -1 -1 -1 -1 -1 -1 -1 -1 -1 -1 -1 -1 -1 -1
 MicOpt= -1 -1 -1 -1 -1 -1 -1 -1 -1 -1 -1 -1 -1 -1 -1 -1 -1 -1 -1 -1
 MicOpt= -1 -1 -1 -1 -1 -1 -1 -1 -1 -1 -1 -1
 NAtoms=    172 NQM=      172 NQMF=       0 NMMI=      0 NMMIF=      0
                NMic=       0 NMicF=      0.
                    Isotopes and Nuclear Properties:
 (Nuclear quadrupole moments (NQMom) in fm**2, nuclear magnetic moments (NMagM)
  in nuclear magnetons)

  Atom         1           2           3           4           5           6           7           8           9          10
 IAtWgt=          12           1          12           1          12          12           1          12           1          12
 AtmWgt=  12.0000000   1.0078250  12.0000000   1.0078250  12.0000000  12.0000000   1.0078250  12.0000000   1.0078250  12.0000000
 NucSpn=           0           1           0           1           0           0           1           0           1           0
 AtZEff=  -0.0000000  -0.0000000  -0.0000000  -0.0000000  -0.0000000  -0.0000000  -0.0000000  -0.0000000  -0.0000000  -0.0000000
 NQMom=    0.0000000   0.0000000   0.0000000   0.0000000   0.0000000   0.0000000   0.0000000   0.0000000   0.0000000   0.0000000
 NMagM=    0.0000000   2.7928460   0.0000000   2.7928460   0.0000000   0.0000000   2.7928460   0.0000000   2.7928460   0.0000000
 AtZNuc=   6.0000000   1.0000000   6.0000000   1.0000000   6.0000000   6.0000000   1.0000000   6.0000000   1.0000000   6.0000000

  Atom        11          12          13          14          15          16          17          18          19          20
 IAtWgt=          12           1          12           1          12          12           1          12           1          12
 AtmWgt=  12.0000000   1.0078250  12.0000000   1.0078250  12.0000000  12.0000000   1.0078250  12.0000000   1.0078250  12.0000000
 NucSpn=           0           1           0           1           0           0           1           0           1           0
 AtZEff=  -0.0000000  -0.0000000  -0.0000000  -0.0000000  -0.0000000  -0.0000000  -0.0000000  -0.0000000  -0.0000000  -0.0000000
 NQMom=    0.0000000   0.0000000   0.0000000   0.0000000   0.0000000   0.0000000   0.0000000   0.0000000   0.0000000   0.0000000
 NMagM=    0.0000000   2.7928460   0.0000000   2.7928460   0.0000000   0.0000000   2.7928460   0.0000000   2.7928460   0.0000000
 AtZNuc=   6.0000000   1.0000000   6.0000000   1.0000000   6.0000000   6.0000000   1.0000000   6.0000000   1.0000000   6.0000000

  Atom        21          22          23          24          25          26          27          28          29          30
 IAtWgt=          12           1          12           1          12          12           1          12           1          12
 AtmWgt=  12.0000000   1.0078250  12.0000000   1.0078250  12.0000000  12.0000000   1.0078250  12.0000000   1.0078250  12.0000000
 NucSpn=           0           1           0           1           0           0           1           0           1           0
 AtZEff=  -0.0000000  -0.0000000  -0.0000000  -0.0000000  -0.0000000  -0.0000000  -0.0000000  -0.0000000  -0.0000000  -0.0000000
 NQMom=    0.0000000   0.0000000   0.0000000   0.0000000   0.0000000   0.0000000   0.0000000   0.0000000   0.0000000   0.0000000
 NMagM=    0.0000000   2.7928460   0.0000000   2.7928460   0.0000000   0.0000000   2.7928460   0.0000000   2.7928460   0.0000000
 AtZNuc=   6.0000000   1.0000000   6.0000000   1.0000000   6.0000000   6.0000000   1.0000000   6.0000000   1.0000000   6.0000000

  Atom        31          32          33          34          35          36          37          38          39          40
 IAtWgt=          12          12          12          12          12          12          12          12          12          12
 AtmWgt=  12.0000000  12.0000000  12.0000000  12.0000000  12.0000000  12.0000000  12.0000000  12.0000000  12.0000000  12.0000000
 NucSpn=           0           0           0           0           0           0           0           0           0           0
 AtZEff=  -0.0000000  -0.0000000  -0.0000000  -0.0000000  -0.0000000  -0.0000000  -0.0000000  -0.0000000  -0.0000000  -0.0000000
 NQMom=    0.0000000   0.0000000   0.0000000   0.0000000   0.0000000   0.0000000   0.0000000   0.0000000   0.0000000   0.0000000
 NMagM=    0.0000000   0.0000000   0.0000000   0.0000000   0.0000000   0.0000000   0.0000000   0.0000000   0.0000000   0.0000000
 AtZNuc=   6.0000000   6.0000000   6.0000000   6.0000000   6.0000000   6.0000000   6.0000000   6.0000000   6.0000000   6.0000000

  Atom        41          42          43          44          45          46          47          48          49          50
 IAtWgt=          12          12          12          12           1          12           1          12          12           1
 AtmWgt=  12.0000000  12.0000000  12.0000000  12.0000000   1.0078250  12.0000000   1.0078250  12.0000000  12.0000000   1.0078250
 NucSpn=           0           0           0           0           1           0           1           0           0           1
 AtZEff=  -0.0000000  -0.0000000  -0.0000000  -0.0000000  -0.0000000  -0.0000000  -0.0000000  -0.0000000  -0.0000000  -0.0000000
 NQMom=    0.0000000   0.0000000   0.0000000   0.0000000   0.0000000   0.0000000   0.0000000   0.0000000   0.0000000   0.0000000
 NMagM=    0.0000000   0.0000000   0.0000000   0.0000000   2.7928460   0.0000000   2.7928460   0.0000000   0.0000000   2.7928460
 AtZNuc=   6.0000000   6.0000000   6.0000000   6.0000000   1.0000000   6.0000000   1.0000000   6.0000000   6.0000000   1.0000000

  Atom        51          52          53          54          55          56          57          58          59          60
 IAtWgt=          12           1          12          12           1          12           1          12          12           1
 AtmWgt=  12.0000000   1.0078250  12.0000000  12.0000000   1.0078250  12.0000000   1.0078250  12.0000000  12.0000000   1.0078250
 NucSpn=           0           1           0           0           1           0           1           0           0           1
 AtZEff=  -0.0000000  -0.0000000  -0.0000000  -0.0000000  -0.0000000  -0.0000000  -0.0000000  -0.0000000  -0.0000000  -0.0000000
 NQMom=    0.0000000   0.0000000   0.0000000   0.0000000   0.0000000   0.0000000   0.0000000   0.0000000   0.0000000   0.0000000
 NMagM=    0.0000000   2.7928460   0.0000000   0.0000000   2.7928460   0.0000000   2.7928460   0.0000000   0.0000000   2.7928460
 AtZNuc=   6.0000000   1.0000000   6.0000000   6.0000000   1.0000000   6.0000000   1.0000000   6.0000000   6.0000000   1.0000000

  Atom        61          62          63          64          65          66          67          68          69          70
 IAtWgt=          12           1          12          12           1          12           1          12          12           1
 AtmWgt=  12.0000000   1.0078250  12.0000000  12.0000000   1.0078250  12.0000000   1.0078250  12.0000000  12.0000000   1.0078250
 NucSpn=           0           1           0           0           1           0           1           0           0           1
 AtZEff=  -0.0000000  -0.0000000  -0.0000000  -0.0000000  -0.0000000  -0.0000000  -0.0000000  -0.0000000  -0.0000000  -0.0000000
 NQMom=    0.0000000   0.0000000   0.0000000   0.0000000   0.0000000   0.0000000   0.0000000   0.0000000   0.0000000   0.0000000
 NMagM=    0.0000000   2.7928460   0.0000000   0.0000000   2.7928460   0.0000000   2.7928460   0.0000000   0.0000000   2.7928460
 AtZNuc=   6.0000000   1.0000000   6.0000000   6.0000000   1.0000000   6.0000000   1.0000000   6.0000000   6.0000000   1.0000000

  Atom        71          72          73          74          75          76          77          78          79          80
 IAtWgt=          12           1           0           0           0           0           0           0           0           0
 AtmWgt=  12.0000000   1.0078250   0.0000000   0.0000000   0.0000000   0.0000000   0.0000000   0.0000000   0.0000000   0.0000000
 NucSpn=           0           1           0           0           0           0           0           0           0           0
 AtZEff=  -0.0000000  -0.0000000  -0.0000000  -0.0000000  -0.0000000  -0.0000000  -0.0000000  -0.0000000  -0.0000000  -0.0000000
 NQMom=    0.0000000   0.0000000   0.0000000   0.0000000   0.0000000   0.0000000   0.0000000   0.0000000   0.0000000   0.0000000
 NMagM=    0.0000000   2.7928460   0.0000000   0.0000000   0.0000000   0.0000000   0.0000000   0.0000000   0.0000000   0.0000000
 AtZNuc=   6.0000000   1.0000000   0.0000000   0.0000000   0.0000000   0.0000000   0.0000000   0.0000000   0.0000000   0.0000000

  Atom        81          82          83          84          85          86          87          88          89          90
 IAtWgt=           0           0           0           0           0           0           0           0           0           0
 AtmWgt=   0.0000000   0.0000000   0.0000000   0.0000000   0.0000000   0.0000000   0.0000000   0.0000000   0.0000000   0.0000000
 NucSpn=           0           0           0           0           0           0           0           0           0           0
 AtZEff=  -0.0000000  -0.0000000  -0.0000000  -0.0000000  -0.0000000  -0.0000000  -0.0000000  -0.0000000  -0.0000000  -0.0000000
 NQMom=    0.0000000   0.0000000   0.0000000   0.0000000   0.0000000   0.0000000   0.0000000   0.0000000   0.0000000   0.0000000
 NMagM=    0.0000000   0.0000000   0.0000000   0.0000000   0.0000000   0.0000000   0.0000000   0.0000000   0.0000000   0.0000000
 AtZNuc=   0.0000000   0.0000000   0.0000000   0.0000000   0.0000000   0.0000000   0.0000000   0.0000000   0.0000000   0.0000000

  Atom        91          92          93          94          95          96          97          98          99         100
 IAtWgt=           0           0           0           0           0           0           0           0           0           0
 AtmWgt=   0.0000000   0.0000000   0.0000000   0.0000000   0.0000000   0.0000000   0.0000000   0.0000000   0.0000000   0.0000000
 NucSpn=           0           0           0           0           0           0           0           0           0           0
 AtZEff=  -0.0000000  -0.0000000  -0.0000000  -0.0000000  -0.0000000  -0.0000000  -0.0000000  -0.0000000  -0.0000000  -0.0000000
 NQMom=    0.0000000   0.0000000   0.0000000   0.0000000   0.0000000   0.0000000   0.0000000   0.0000000   0.0000000   0.0000000
 NMagM=    0.0000000   0.0000000   0.0000000   0.0000000   0.0000000   0.0000000   0.0000000   0.0000000   0.0000000   0.0000000
 AtZNuc=   0.0000000   0.0000000   0.0000000   0.0000000   0.0000000   0.0000000   0.0000000   0.0000000   0.0000000   0.0000000

  Atom       101         102         103         104         105         106         107         108         109         110
 IAtWgt=           0           0           0           0           0           0           0           0           0           0
 AtmWgt=   0.0000000   0.0000000   0.0000000   0.0000000   0.0000000   0.0000000   0.0000000   0.0000000   0.0000000   0.0000000
 NucSpn=           0           0           0           0           0           0           0           0           0           0
 AtZEff=  -0.0000000  -0.0000000  -0.0000000  -0.0000000  -0.0000000  -0.0000000  -0.0000000  -0.0000000  -0.0000000  -0.0000000
 NQMom=    0.0000000   0.0000000   0.0000000   0.0000000   0.0000000   0.0000000   0.0000000   0.0000000   0.0000000   0.0000000
 NMagM=    0.0000000   0.0000000   0.0000000   0.0000000   0.0000000   0.0000000   0.0000000   0.0000000   0.0000000   0.0000000
 AtZNuc=   0.0000000   0.0000000   0.0000000   0.0000000   0.0000000   0.0000000   0.0000000   0.0000000   0.0000000   0.0000000

  Atom       111         112         113         114         115         116         117         118         119         120
 IAtWgt=           0           0           0           0           0           0           0           0           0           0
 AtmWgt=   0.0000000   0.0000000   0.0000000   0.0000000   0.0000000   0.0000000   0.0000000   0.0000000   0.0000000   0.0000000
 NucSpn=           0           0           0           0           0           0           0           0           0           0
 AtZEff=  -0.0000000  -0.0000000  -0.0000000  -0.0000000  -0.0000000  -0.0000000  -0.0000000  -0.0000000  -0.0000000  -0.0000000
 NQMom=    0.0000000   0.0000000   0.0000000   0.0000000   0.0000000   0.0000000   0.0000000   0.0000000   0.0000000   0.0000000
 NMagM=    0.0000000   0.0000000   0.0000000   0.0000000   0.0000000   0.0000000   0.0000000   0.0000000   0.0000000   0.0000000
 AtZNuc=   0.0000000   0.0000000   0.0000000   0.0000000   0.0000000   0.0000000   0.0000000   0.0000000   0.0000000   0.0000000

  Atom       121         122         123         124         125         126         127         128         129         130
 IAtWgt=           0           0           0           0           0           0           0           0           0           0
 AtmWgt=   0.0000000   0.0000000   0.0000000   0.0000000   0.0000000   0.0000000   0.0000000   0.0000000   0.0000000   0.0000000
 NucSpn=           0           0           0           0           0           0           0           0           0           0
 AtZEff=  -0.0000000  -0.0000000  -0.0000000  -0.0000000  -0.0000000  -0.0000000  -0.0000000  -0.0000000  -0.0000000  -0.0000000
 NQMom=    0.0000000   0.0000000   0.0000000   0.0000000   0.0000000   0.0000000   0.0000000   0.0000000   0.0000000   0.0000000
 NMagM=    0.0000000   0.0000000   0.0000000   0.0000000   0.0000000   0.0000000   0.0000000   0.0000000   0.0000000   0.0000000
 AtZNuc=   0.0000000   0.0000000   0.0000000   0.0000000   0.0000000   0.0000000   0.0000000   0.0000000   0.0000000   0.0000000

  Atom       131         132         133         134         135         136         137         138         139         140
 IAtWgt=           0           0           0           0           0           0           0           0           0           0
 AtmWgt=   0.0000000   0.0000000   0.0000000   0.0000000   0.0000000   0.0000000   0.0000000   0.0000000   0.0000000   0.0000000
 NucSpn=           0           0           0           0           0           0           0           0           0           0
 AtZEff=  -0.0000000  -0.0000000  -0.0000000  -0.0000000  -0.0000000  -0.0000000  -0.0000000  -0.0000000  -0.0000000  -0.0000000
 NQMom=    0.0000000   0.0000000   0.0000000   0.0000000   0.0000000   0.0000000   0.0000000   0.0000000   0.0000000   0.0000000
 NMagM=    0.0000000   0.0000000   0.0000000   0.0000000   0.0000000   0.0000000   0.0000000   0.0000000   0.0000000   0.0000000
 AtZNuc=   0.0000000   0.0000000   0.0000000   0.0000000   0.0000000   0.0000000   0.0000000   0.0000000   0.0000000   0.0000000

  Atom       141         142         143         144         145         146         147         148         149         150
 IAtWgt=           0           0           0           0           0           0           0           0           0           0
 AtmWgt=   0.0000000   0.0000000   0.0000000   0.0000000   0.0000000   0.0000000   0.0000000   0.0000000   0.0000000   0.0000000
 NucSpn=           0           0           0           0           0           0           0           0           0           0
 AtZEff=  -0.0000000  -0.0000000  -0.0000000  -0.0000000  -0.0000000  -0.0000000  -0.0000000  -0.0000000  -0.0000000  -0.0000000
 NQMom=    0.0000000   0.0000000   0.0000000   0.0000000   0.0000000   0.0000000   0.0000000   0.0000000   0.0000000   0.0000000
 NMagM=    0.0000000   0.0000000   0.0000000   0.0000000   0.0000000   0.0000000   0.0000000   0.0000000   0.0000000   0.0000000
 AtZNuc=   0.0000000   0.0000000   0.0000000   0.0000000   0.0000000   0.0000000   0.0000000   0.0000000   0.0000000   0.0000000

  Atom       151         152         153         154         155         156         157         158         159         160
 IAtWgt=           0           0           0           0           0           0           0           0           0           0
 AtmWgt=   0.0000000   0.0000000   0.0000000   0.0000000   0.0000000   0.0000000   0.0000000   0.0000000   0.0000000   0.0000000
 NucSpn=           0           0           0           0           0           0           0           0           0           0
 AtZEff=  -0.0000000  -0.0000000  -0.0000000  -0.0000000  -0.0000000  -0.0000000  -0.0000000  -0.0000000  -0.0000000  -0.0000000
 NQMom=    0.0000000   0.0000000   0.0000000   0.0000000   0.0000000   0.0000000   0.0000000   0.0000000   0.0000000   0.0000000
 NMagM=    0.0000000   0.0000000   0.0000000   0.0000000   0.0000000   0.0000000   0.0000000   0.0000000   0.0000000   0.0000000
 AtZNuc=   0.0000000   0.0000000   0.0000000   0.0000000   0.0000000   0.0000000   0.0000000   0.0000000   0.0000000   0.0000000

  Atom       161         162         163         164         165         166         167         168         169         170
 IAtWgt=           0           0           0           0           0           0           0           0           0           0
 AtmWgt=   0.0000000   0.0000000   0.0000000   0.0000000   0.0000000   0.0000000   0.0000000   0.0000000   0.0000000   0.0000000
 NucSpn=           0           0           0           0           0           0           0           0           0           0
 AtZEff=  -0.0000000  -0.0000000  -0.0000000  -0.0000000  -0.0000000  -0.0000000  -0.0000000  -0.0000000  -0.0000000  -0.0000000
 NQMom=    0.0000000   0.0000000   0.0000000   0.0000000   0.0000000   0.0000000   0.0000000   0.0000000   0.0000000   0.0000000
 NMagM=    0.0000000   0.0000000   0.0000000   0.0000000   0.0000000   0.0000000   0.0000000   0.0000000   0.0000000   0.0000000
 AtZNuc=   0.0000000   0.0000000   0.0000000   0.0000000   0.0000000   0.0000000   0.0000000   0.0000000   0.0000000   0.0000000

  Atom       171         172
 IAtWgt=           0           0
 AtmWgt=   0.0000000   0.0000000
 NucSpn=           0           0
 AtZEff=  -0.0000000  -0.0000000
 NQMom=    0.0000000   0.0000000
 NMagM=    0.0000000   0.0000000
 AtZNuc=   0.0000000   0.0000000
 Leave Link  101 at Sun Aug  6 07:09:33 2023, MaxMem= 64424509440 cpu:               3.3 elap:               0.2
 (Enter /sob/g16/l202.exe)
 Symmetry turned off:
 Cannot cope with ghost atoms or with translation vectors.
 Stoichiometry    C48H24
 Framework group  C1[X(C48H24)]
 NumDoF:  NAt=    72 NAtoms=   172
 Deg. of freedom     0
 Full point group                 C1      NOp   1
                          Input orientation:                          
 ---------------------------------------------------------------------
 Center     Atomic      Atomic             Coordinates (Angstroms)
 Number     Number       Type             X           Y           Z
 ---------------------------------------------------------------------
      1          6           0       -1.752000    1.338000    1.272000
      2          1           0       -1.892000    1.420000    2.344000
      3          6           0       -1.928000    2.420000    0.465000
      4          1           0       -2.234000    3.376000    0.881000
      5          6           0       -1.642000    2.348000   -0.926000
      6          6           0       -1.727000    3.522000   -1.713000
      7          1           0       -2.030000    4.453000   -1.240000
      8          6           0       -1.480000    3.457000   -3.048000
      9          1           0       -1.612000    4.328000   -3.685000
     10          6           0       -1.001000    2.260000   -3.646000
     11          6           0       -0.794000    2.272000   -5.050000
     12          1           0       -1.020000    3.181000   -5.602000
     13          6           0       -0.398000    1.142000   -5.683000
     14          1           0       -0.329000    1.098000   -6.767000
     15          6           0        0.000000    0.000000   -4.938000
     16          6           0        0.398000   -1.142000   -5.683000
     17          1           0        0.329000   -1.098000   -6.767000
     18          6           0        0.794000   -2.272000   -5.050000
     19          1           0        1.020000   -3.181000   -5.602000
     20          6           0        1.001000   -2.260000   -3.646000
     21          6           0        1.480000   -3.457000   -3.048000
     22          1           0        1.612000   -4.328000   -3.685000
     23          6           0        1.727000   -3.522000   -1.713000
     24          1           0        2.030000   -4.453000   -1.240000
     25          6           0        1.642000   -2.348000   -0.926000
     26          6           0        1.928000   -2.420000    0.465000
     27          1           0        2.234000   -3.376000    0.881000
     28          6           0        1.752000   -1.338000    1.272000
     29          1           0        1.892000   -1.420000    2.344000
     30          6           0        1.477000   -0.064000    0.706000
     31          6           0        1.283000    1.108000    1.519000
     32          6           0        0.759000    1.086000    2.870000
     33          6           0        0.000000    0.000000    3.509000
     34          6           0       -0.759000   -1.086000    2.870000
     35          6           0       -1.283000   -1.108000    1.519000
     36          6           0       -1.477000    0.064000    0.706000
     37          6           0       -1.477000   -0.064000   -0.706000
     38          6           0       -1.283000    1.108000   -1.519000
     39          6           0       -0.759000    1.086000   -2.870000
     40          6           0        0.000000    0.000000   -3.509000
     41          6           0        0.759000   -1.086000   -2.870000
     42          6           0        1.283000   -1.108000   -1.519000
     43          6           0        1.477000    0.064000   -0.706000
     44          6           0        1.752000    1.338000   -1.272000
     45          1           0        1.892000    1.420000   -2.344000
     46          6           0        1.928000    2.420000   -0.465000
     47          1           0        2.234000    3.376000   -0.881000
     48          6           0        1.642000    2.348000    0.926000
     49          6           0        1.727000    3.522000    1.713000
     50          1           0        2.030000    4.453000    1.240000
     51          6           0        1.480000    3.457000    3.048000
     52          1           0        1.612000    4.328000    3.685000
     53          6           0        1.001000    2.260000    3.646000
     54          6           0        0.794000    2.272000    5.050000
     55          1           0        1.020000    3.181000    5.602000
     56          6           0        0.398000    1.142000    5.683000
     57          1           0        0.329000    1.098000    6.767000
     58          6           0        0.000000    0.000000    4.938000
     59          6           0       -0.398000   -1.142000    5.683000
     60          1           0       -0.329000   -1.098000    6.767000
     61          6           0       -0.794000   -2.272000    5.050000
     62          1           0       -1.020000   -3.181000    5.602000
     63          6           0       -1.001000   -2.260000    3.646000
     64          6           0       -1.480000   -3.457000    3.048000
     65          1           0       -1.612000   -4.328000    3.685000
     66          6           0       -1.727000   -3.522000    1.713000
     67          1           0       -2.030000   -4.453000    1.240000
     68          6           0       -1.642000   -2.348000    0.926000
     69          6           0       -1.928000   -2.420000   -0.465000
     70          1           0       -2.234000   -3.376000   -0.881000
     71          6           0       -1.752000   -1.338000   -1.272000
     72          1           0       -1.892000   -1.420000   -2.344000
     73          0           0      -11.405823    0.190253    1.449347
     74          0           0      -11.306705    0.176187    1.435899
     75          0           0      -11.207587    0.162120    1.422451
     76          0           0      -11.108469    0.148054    1.409003
     77          0           0      -11.009352    0.133987    1.395555
     78          0           0      -10.910234    0.119920    1.382107
     79          0           0      -10.811116    0.105854    1.368659
     80          0           0      -10.711999    0.091787    1.355211
     81          0           0      -10.612881    0.077721    1.341763
     82          0           0      -10.513763    0.063654    1.328315
     83          0           0      -10.414645    0.049588    1.314867
     84          0           0      -10.315528    0.035521    1.301419
     85          0           0      -10.216410    0.021455    1.287972
     86          0           0      -10.117292    0.007388    1.274524
     87          0           0      -10.018174   -0.006678    1.261076
     88          0           0       -9.919057   -0.020745    1.247628
     89          0           0       -9.819939   -0.034811    1.234180
     90          0           0       -9.720821   -0.048878    1.220732
     91          0           0       -9.621703   -0.062944    1.207284
     92          0           0       -9.522586   -0.077011    1.193836
     93          0           0       -9.423468   -0.091077    1.180388
     94          0           0       -9.324350   -0.105144    1.166940
     95          0           0       -9.225232   -0.119211    1.153492
     96          0           0       -9.126115   -0.133277    1.140044
     97          0           0       -9.026997   -0.147344    1.126596
     98          0           0       -8.927879   -0.161410    1.113148
     99          0           0       -8.828762   -0.175477    1.099700
    100          0           0       -8.729644   -0.189543    1.086252
    101          0           0       -8.630526   -0.203610    1.072804
    102          0           0       -8.531408   -0.217676    1.059356
    103          0           0       -8.432291   -0.231743    1.045908
    104          0           0       -8.333173   -0.245809    1.032461
    105          0           0       -8.234055   -0.259876    1.019013
    106          0           0       -8.134937   -0.273942    1.005565
    107          0           0       -8.035820   -0.288009    0.992117
    108          0           0       -7.936702   -0.302075    0.978669
    109          0           0       -7.837584   -0.316142    0.965221
    110          0           0       -7.738466   -0.330208    0.951773
    111          0           0       -7.639349   -0.344275    0.938325
    112          0           0       -7.540231   -0.358342    0.924877
    113          0           0       -7.441113   -0.372408    0.911429
    114          0           0       -7.341995   -0.386475    0.897981
    115          0           0       -7.242878   -0.400541    0.884533
    116          0           0       -7.143760   -0.414608    0.871085
    117          0           0       -7.044642   -0.428674    0.857637
    118          0           0       -6.945524   -0.442741    0.844189
    119          0           0       -6.846407   -0.456807    0.830741
    120          0           0       -6.747289   -0.470874    0.817293
    121          0           0       -6.648171   -0.484940    0.803845
    122          0           0       -6.549054   -0.499007    0.790397
    123          0           0       -6.449936   -0.513073    0.776949
    124          0           0       -6.350818   -0.527140    0.763502
    125          0           0       -6.251700   -0.541206    0.750054
    126          0           0       -6.152583   -0.555273    0.736606
    127          0           0       -6.053465   -0.569339    0.723158
    128          0           0       -5.954347   -0.583406    0.709710
    129          0           0       -5.855229   -0.597473    0.696262
    130          0           0       -5.756112   -0.611539    0.682814
    131          0           0       -5.656994   -0.625606    0.669366
    132          0           0       -5.557876   -0.639672    0.655918
    133          0           0       -5.458758   -0.653739    0.642470
    134          0           0       -5.359641   -0.667805    0.629022
    135          0           0       -5.260523   -0.681872    0.615574
    136          0           0       -5.161405   -0.695938    0.602126
    137          0           0       -5.062287   -0.710005    0.588678
    138          0           0       -4.963170   -0.724071    0.575230
    139          0           0       -4.864052   -0.738138    0.561782
    140          0           0       -4.764934   -0.752204    0.548334
    141          0           0       -4.665817   -0.766271    0.534886
    142          0           0       -4.566699   -0.780337    0.521438
    143          0           0       -4.467581   -0.794404    0.507991
    144          0           0       -4.368463   -0.808470    0.494543
    145          0           0       -4.269346   -0.822537    0.481095
    146          0           0       -4.170228   -0.836604    0.467647
    147          0           0       -4.071110   -0.850670    0.454199
    148          0           0       -3.971992   -0.864737    0.440751
    149          0           0       -3.872875   -0.878803    0.427303
    150          0           0       -3.773757   -0.892870    0.413855
    151          0           0       -3.674639   -0.906936    0.400407
    152          0           0       -3.575521   -0.921003    0.386959
    153          0           0       -3.476404   -0.935069    0.373511
    154          0           0       -3.377286   -0.949136    0.360063
    155          0           0       -3.278168   -0.963202    0.346615
    156          0           0       -3.179050   -0.977269    0.333167
    157          0           0       -3.079933   -0.991335    0.319719
    158          0           0       -2.980815   -1.005402    0.306271
    159          0           0       -2.881697   -1.019468    0.292823
    160          0           0       -2.782580   -1.033535    0.279375
    161          0           0       -2.683462   -1.047602    0.265927
    162          0           0       -2.584344   -1.061668    0.252479
    163          0           0       -2.485226   -1.075735    0.239032
    164          0           0       -2.386109   -1.089801    0.225584
    165          0           0       -2.286991   -1.103868    0.212136
    166          0           0       -2.187873   -1.117934    0.198688
    167          0           0       -2.088755   -1.132001    0.185240
    168          0           0       -1.989638   -1.146067    0.171792
    169          0           0       -1.890520   -1.160134    0.158344
    170          0           0       -1.791402   -1.174200    0.144896
    171          0           0       -1.692284   -1.188267    0.131448
    172          0           0       -1.593167   -1.202333    0.118000
 ---------------------------------------------------------------------
 Rotational constants (GHZ):           0.1331957           0.0721598           0.0583329
 Leave Link  202 at Sun Aug  6 07:09:33 2023, MaxMem= 64424509440 cpu:               2.4 elap:               0.0
 (Enter /sob/g16/l301.exe)
 Standard basis: 6-31+G(d) (6D, 7F)
 Warning:  center  73 has no basis functions!
 Warning:  center  74 has no basis functions!
 Warning:  center  75 has no basis functions!
 Warning:  center  76 has no basis functions!
 Warning:  center  77 has no basis functions!
 Warning:  center  78 has no basis functions!
 Warning:  center  79 has no basis functions!
 Warning:  center  80 has no basis functions!
 Warning:  center  81 has no basis functions!
 Warning:  center  82 has no basis functions!
 Warning:  center  83 has no basis functions!
 Warning:  center  84 has no basis functions!
 Warning:  center  85 has no basis functions!
 Warning:  center  86 has no basis functions!
 Warning:  center  87 has no basis functions!
 Warning:  center  88 has no basis functions!
 Warning:  center  89 has no basis functions!
 Warning:  center  90 has no basis functions!
 Warning:  center  91 has no basis functions!
 Warning:  center  92 has no basis functions!
 Warning:  center  93 has no basis functions!
 Warning:  center  94 has no basis functions!
 Warning:  center  95 has no basis functions!
 Warning:  center  96 has no basis functions!
 Warning:  center  97 has no basis functions!
 Warning:  center  98 has no basis functions!
 Warning:  center  99 has no basis functions!
 Warning:  center 100 has no basis functions!
 Warning:  center 101 has no basis functions!
 Warning:  center 102 has no basis functions!
 Warning:  center 103 has no basis functions!
 Warning:  center 104 has no basis functions!
 Warning:  center 105 has no basis functions!
 Warning:  center 106 has no basis functions!
 Warning:  center 107 has no basis functions!
 Warning:  center 108 has no basis functions!
 Warning:  center 109 has no basis functions!
 Warning:  center 110 has no basis functions!
 Warning:  center 111 has no basis functions!
 Warning:  center 112 has no basis functions!
 Warning:  center 113 has no basis functions!
 Warning:  center 114 has no basis functions!
 Warning:  center 115 has no basis functions!
 Warning:  center 116 has no basis functions!
 Warning:  center 117 has no basis functions!
 Warning:  center 118 has no basis functions!
 Warning:  center 119 has no basis functions!
 Warning:  center 120 has no basis functions!
 Warning:  center 121 has no basis functions!
 Warning:  center 122 has no basis functions!
 Warning:  center 123 has no basis functions!
 Warning:  center 124 has no basis functions!
 Warning:  center 125 has no basis functions!
 Warning:  center 126 has no basis functions!
 Warning:  center 127 has no basis functions!
 Warning:  center 128 has no basis functions!
 Warning:  center 129 has no basis functions!
 Warning:  center 130 has no basis functions!
 Warning:  center 131 has no basis functions!
 Warning:  center 132 has no basis functions!
 Warning:  center 133 has no basis functions!
 Warning:  center 134 has no basis functions!
 Warning:  center 135 has no basis functions!
 Warning:  center 136 has no basis functions!
 Warning:  center 137 has no basis functions!
 Warning:  center 138 has no basis functions!
 Warning:  center 139 has no basis functions!
 Warning:  center 140 has no basis functions!
 Warning:  center 141 has no basis functions!
 Warning:  center 142 has no basis functions!
 Warning:  center 143 has no basis functions!
 Warning:  center 144 has no basis functions!
 Warning:  center 145 has no basis functions!
 Warning:  center 146 has no basis functions!
 Warning:  center 147 has no basis functions!
 Warning:  center 148 has no basis functions!
 Warning:  center 149 has no basis functions!
 Warning:  center 150 has no basis functions!
 Warning:  center 151 has no basis functions!
 Warning:  center 152 has no basis functions!
 Warning:  center 153 has no basis functions!
 Warning:  center 154 has no basis functions!
 Warning:  center 155 has no basis functions!
 Warning:  center 156 has no basis functions!
 Warning:  center 157 has no basis functions!
 Warning:  center 158 has no basis functions!
 Warning:  center 159 has no basis functions!
 Warning:  center 160 has no basis functions!
 Warning:  center 161 has no basis functions!
 Warning:  center 162 has no basis functions!
 Warning:  center 163 has no basis functions!
 Warning:  center 164 has no basis functions!
 Warning:  center 165 has no basis functions!
 Warning:  center 166 has no basis functions!
 Warning:  center 167 has no basis functions!
 Warning:  center 168 has no basis functions!
 Warning:  center 169 has no basis functions!
 Warning:  center 170 has no basis functions!
 Warning:  center 171 has no basis functions!
 Warning:  center 172 has no basis functions!
 Ernie: Thresh=  0.10000D-02 Tol=  0.10000D-05 Strict=F.
   960 basis functions,  1632 primitive gaussians,   960 cartesian basis functions
   156 alpha electrons      156 beta electrons
       nuclear repulsion energy      5906.7722364558 Hartrees.
 IExCor=  402 DFT=T Ex+Corr=B3LYP ExCW=0 ScaHFX=  0.200000
 ScaDFX=  0.800000  0.720000  1.000000  0.810000 ScalE2=  1.000000  1.000000
 IRadAn=      5 IRanWt=     -1 IRanGd=            0 ICorTp=0 IEmpDi=  4
 NAtoms=  172 NActive=  172 NUniq=  172 SFac= 1.00D+00 NAtFMM=   60 NAOKFM=T Big=T
 Integral buffers will be    131072 words long.
 Raffenetti 2 integral format.
 Two-electron integral symmetry is turned off.
 Leave Link  301 at Sun Aug  6 07:09:33 2023, MaxMem= 64424509440 cpu:               2.1 elap:               0.1
 (Enter /sob/g16/l302.exe)
 NPDir=0 NMtPBC=     1 NCelOv=     1 NCel=       1 NClECP=     1 NCelD=      1
         NCelK=      1 NCelE2=     1 NClLst=     1 CellRange=     0.0.
 One-electron integrals computed using PRISM.
 NBasis=   960 RedAO= T EigKep=  1.10D-06  NBF=   960
 NBsUse=   924 1.00D-06 EigRej=  8.91D-07 NBFU=   924
 Precomputing XC quadrature grid using
 IXCGrd= 4 IRadAn=           5 IRanWt=          -1 IRanGd=           0 AccXCQ= 0.00D+00.
 Generated NRdTot=       0 NPtTot=           0 NUsed=           0 NTot=          32
 NSgBfM=   944   943   943   943   944 MxSgAt=   172 MxSgA2=    72.
 Leave Link  302 at Sun Aug  6 07:09:35 2023, MaxMem= 64424509440 cpu:              65.0 elap:               1.6
 (Enter /sob/g16/l303.exe)
 DipDrv:  MaxL=1.
 Leave Link  303 at Sun Aug  6 07:09:35 2023, MaxMem= 64424509440 cpu:               3.2 elap:               0.2
 (Enter /sob/g16/l308.exe)
 Leave Link  308 at Sun Aug  6 07:09:35 2023, MaxMem= 64424509440 cpu:               3.1 elap:               0.2
 (Enter /sob/g16/l401.exe)
 ExpMin= 4.38D-02 ExpMax= 3.05D+03 ExpMxC= 4.57D+02 IAcc=3 IRadAn=         5 AccDes= 0.00D+00
 Harris functional with IExCor=  402 and IRadAn=       5 diagonalized for initial guess.
 HarFok:  IExCor=  402 AccDes= 0.00D+00 IRadAn=         5 IDoV= 1 UseB2=F ITyADJ=14
 ICtDFT=  3500011 ScaDFX=  1.000000  1.000000  1.000000  1.000000
 FoFCou: FMM=F IPFlag=           0 FMFlag=      100000 FMFlg1=        2001
         NFxFlg=           0 DoJE=T BraDBF=F KetDBF=T FulRan=T
         wScrn=  0.000000 ICntrl=       500 IOpCl=  0 I1Cent=   200000004 NGrid=           0
         NMat0=    1 NMatS0=      1 NMatT0=    0 NMatD0=    1 NMtDS0=    0 NMtDT0=    0
 Symmetry not used in FoFCou.
 Harris En= -1843.59252875074    
 JPrj=0 DoOrth=F DoCkMO=F.
 Leave Link  401 at Sun Aug  6 07:09:37 2023, MaxMem= 64424509440 cpu:             172.0 elap:               2.3
 (Enter /sob/g16/l502.exe)
 Two-electron integral symmetry not used.
 Closed shell SCF:
 Using DIIS extrapolation, IDIIS=  1040.
 NGot= 64424509440 LenX= 64422560858 LenY= 64421638298
 Requested convergence on RMS density matrix=1.00D-08 within 128 cycles.
 Requested convergence on MAX density matrix=1.00D-06.
 Requested convergence on             energy=1.00D-06.
 No special actions if energy rises.
 Fock matrices will be formed incrementally for  20 cycles.

 Cycle   1  Pass 1  IDiag  1:
 FoFJK:  IHMeth= 1 ICntrl=       0 DoSepK=F KAlg= 0 I1Cent=           0 FoldK=F
 IRaf= 990000000 NMat=       1 IRICut=       1 DoRegI=T DoRafI=F ISym2E= 0 IDoP0=0 IntGTp=1.
 FoFCou: FMM=T IPFlag=           0 FMFlag=      100000 FMFlg1=        2001
         NFxFlg=           0 DoJE=F BraDBF=F KetDBF=F FulRan=T
         wScrn=  0.000000 ICntrl=         0 IOpCl=  0 I1Cent=           0 NGrid=           0
         NMat0=    1 NMatS0=      1 NMatT0=    0 NMatD0=    1 NMtDS0=    0 NMtDT0=    0
 Symmetry not used in FoFCou.
 FMM levels:  10  Number of levels for PrismC:   9
 E= -1842.84053957653    
 DIIS: error= 2.47D-02 at cycle   1 NSaved=   1.
 NSaved= 1 IEnMin= 1 EnMin= -1842.84053957653     IErMin= 1 ErrMin= 2.47D-02
 ErrMax= 2.47D-02  0.00D+00 EMaxC= 1.00D-01 BMatC= 7.53D-01 BMatP= 7.53D-01
 IDIUse=3 WtCom= 7.53D-01 WtEn= 2.47D-01
 Coeff-Com:  0.100D+01
 Coeff-En:   0.100D+01
 Coeff:      0.100D+01
 Gap=     0.112 Goal=   None    Shift=    0.000
 GapD=    0.112 DampG=1.000 DampE=0.500 DampFc=0.5000 IDamp=-1.
 Damping current iteration by 5.00D-01
 RMSDP=5.06D-02 MaxDP=2.25D+00              OVMax= 1.88D-01

 Cycle   2  Pass 1  IDiag  1:
 RMSU=  2.40D-02    CP:  9.16D-01
 E= -1843.23368781678     Delta-E=       -0.393148240250 Rises=F Damp=T
 DIIS: error= 7.20D-03 at cycle   2 NSaved=   2.
 NSaved= 2 IEnMin= 2 EnMin= -1843.23368781678     IErMin= 2 ErrMin= 7.20D-03
 ErrMax= 7.20D-03  0.00D+00 EMaxC= 1.00D-01 BMatC= 5.56D-02 BMatP= 7.53D-01
 IDIUse=3 WtCom= 9.28D-01 WtEn= 7.20D-02
 Coeff-Com: -0.400D-01 0.104D+01
 Coeff-En:   0.000D+00 0.100D+01
 Coeff:     -0.372D-01 0.104D+01
 Gap=     0.206 Goal=   None    Shift=    0.000
 RMSDP=3.04D-02 MaxDP=2.06D+00 DE=-3.93D-01 OVMax= 1.54D-01

 Cycle   3  Pass 1  IDiag  1:
 RMSU=  1.61D-02    CP:  7.23D-01  2.61D-01
 E= -1843.60615868441     Delta-E=       -0.372470867629 Rises=F Damp=F
 DIIS: error= 7.08D-03 at cycle   3 NSaved=   3.
 NSaved= 3 IEnMin= 3 EnMin= -1843.60615868441     IErMin= 3 ErrMin= 7.08D-03
 ErrMax= 7.08D-03  0.00D+00 EMaxC= 1.00D-01 BMatC= 5.52D-02 BMatP= 5.56D-02
 IDIUse=3 WtCom= 9.29D-01 WtEn= 7.08D-02
 Coeff-Com: -0.852D-01 0.556D+00 0.530D+00
 Coeff-En:   0.000D+00 0.000D+00 0.100D+01
 Coeff:     -0.792D-01 0.516D+00 0.563D+00
 Gap=     0.121 Goal=   None    Shift=    0.000
 RMSDP=1.17D-02 MaxDP=8.16D-01 DE=-3.72D-01 OVMax= 9.66D-02

 Cycle   4  Pass 1  IDiag  1:
 RMSU=  6.83D-03    CP:  6.78D-01  4.15D-01  5.31D-01
 E= -1843.63327648183     Delta-E=       -0.027117797416 Rises=F Damp=F
 DIIS: error= 5.43D-03 at cycle   4 NSaved=   4.
 NSaved= 4 IEnMin= 4 EnMin= -1843.63327648183     IErMin= 4 ErrMin= 5.43D-03
 ErrMax= 5.43D-03  0.00D+00 EMaxC= 1.00D-01 BMatC= 2.97D-02 BMatP= 5.52D-02
 IDIUse=3 WtCom= 9.46D-01 WtEn= 5.43D-02
 Coeff-Com: -0.498D-01 0.191D+00 0.426D+00 0.433D+00
 Coeff-En:   0.000D+00 0.000D+00 0.386D+00 0.614D+00
 Coeff:     -0.471D-01 0.181D+00 0.424D+00 0.442D+00
 Gap=     0.118 Goal=   None    Shift=    0.000
 RMSDP=5.88D-03 MaxDP=2.37D-01 DE=-2.71D-02 OVMax= 5.21D-02

 Cycle   5  Pass 1  IDiag  1:
 RMSU=  3.43D-03    CP:  6.64D-01  5.04D-01  4.39D-01  4.46D-01
 E= -1843.66452996649     Delta-E=       -0.031253484663 Rises=F Damp=F
 DIIS: error= 1.87D-03 at cycle   5 NSaved=   5.
 NSaved= 5 IEnMin= 5 EnMin= -1843.66452996649     IErMin= 5 ErrMin= 1.87D-03
 ErrMax= 1.87D-03  0.00D+00 EMaxC= 1.00D-01 BMatC= 2.27D-03 BMatP= 2.97D-02
 IDIUse=3 WtCom= 9.81D-01 WtEn= 1.87D-02
 Coeff-Com: -0.256D-01 0.784D-01 0.235D+00 0.291D+00 0.421D+00
 Coeff-En:   0.000D+00 0.000D+00 0.000D+00 0.129D-01 0.987D+00
 Coeff:     -0.251D-01 0.769D-01 0.231D+00 0.286D+00 0.432D+00
 Gap=     0.118 Goal=   None    Shift=    0.000
 RMSDP=3.56D-03 MaxDP=1.73D-01 DE=-3.13D-02 OVMax= 1.72D-02

 Cycle   6  Pass 1  IDiag  1:
 RMSU=  8.77D-04    CP:  6.79D-01  4.47D-01  5.89D-01  4.67D-01  5.55D-01
 E= -1843.66654616646     Delta-E=       -0.002016199972 Rises=F Damp=F
 DIIS: error= 8.99D-04 at cycle   6 NSaved=   6.
 NSaved= 6 IEnMin= 6 EnMin= -1843.66654616646     IErMin= 6 ErrMin= 8.99D-04
 ErrMax= 8.99D-04  0.00D+00 EMaxC= 1.00D-01 BMatC= 4.22D-04 BMatP= 2.27D-03
 IDIUse=3 WtCom= 9.91D-01 WtEn= 8.99D-03
 Coeff-Com: -0.837D-02 0.180D-01 0.823D-01 0.117D+00 0.312D+00 0.478D+00
 Coeff-En:   0.000D+00 0.000D+00 0.000D+00 0.000D+00 0.199D+00 0.801D+00
 Coeff:     -0.830D-02 0.178D-01 0.816D-01 0.116D+00 0.311D+00 0.481D+00
 Gap=     0.118 Goal=   None    Shift=    0.000
 RMSDP=9.43D-04 MaxDP=3.82D-02 DE=-2.02D-03 OVMax= 6.05D-03

 Cycle   7  Pass 1  IDiag  1:
 RMSU=  3.58D-04    CP:  6.75D-01  4.60D-01  5.49D-01  4.79D-01  6.27D-01
                    CP:  6.63D-01
 E= -1843.66697384353     Delta-E=       -0.000427677069 Rises=F Damp=F
 DIIS: error= 2.01D-04 at cycle   7 NSaved=   7.
 NSaved= 7 IEnMin= 7 EnMin= -1843.66697384353     IErMin= 7 ErrMin= 2.01D-04
 ErrMax= 2.01D-04  0.00D+00 EMaxC= 1.00D-01 BMatC= 3.51D-05 BMatP= 4.22D-04
 IDIUse=3 WtCom= 9.98D-01 WtEn= 2.01D-03
 Coeff-Com: -0.301D-02 0.462D-02 0.306D-01 0.469D-01 0.157D+00 0.308D+00
 Coeff-Com:  0.456D+00
 Coeff-En:   0.000D+00 0.000D+00 0.000D+00 0.000D+00 0.000D+00 0.469D-01
 Coeff-En:   0.953D+00
 Coeff:     -0.300D-02 0.461D-02 0.305D-01 0.468D-01 0.157D+00 0.307D+00
 Coeff:      0.457D+00
 Gap=     0.118 Goal=   None    Shift=    0.000
 RMSDP=1.80D-04 MaxDP=6.66D-03 DE=-4.28D-04 OVMax= 1.83D-03

 Cycle   8  Pass 1  IDiag  1:
 RMSU=  6.87D-05    CP:  6.75D-01  4.58D-01  5.55D-01  4.81D-01  6.21D-01
                    CP:  6.54D-01  6.50D-01
 E= -1843.66701010794     Delta-E=       -0.000036264405 Rises=F Damp=F
 DIIS: error= 5.03D-05 at cycle   8 NSaved=   8.
 NSaved= 8 IEnMin= 8 EnMin= -1843.66701010794     IErMin= 8 ErrMin= 5.03D-05
 ErrMax= 5.03D-05  0.00D+00 EMaxC= 1.00D-01 BMatC= 1.86D-06 BMatP= 3.51D-05
 IDIUse=1 WtCom= 1.00D+00 WtEn= 0.00D+00
 Coeff-Com: -0.107D-02 0.122D-02 0.113D-01 0.176D-01 0.659D-01 0.139D+00
 Coeff-Com:  0.261D+00 0.505D+00
 Coeff:     -0.107D-02 0.122D-02 0.113D-01 0.176D-01 0.659D-01 0.139D+00
 Coeff:      0.261D+00 0.505D+00
 Gap=     0.118 Goal=   None    Shift=    0.000
 RMSDP=5.75D-05 MaxDP=2.27D-03 DE=-3.63D-05 OVMax= 4.44D-04

 Cycle   9  Pass 1  IDiag  1:
 RMSU=  3.25D-05    CP:  6.75D-01  4.58D-01  5.55D-01  4.80D-01  6.26D-01
                    CP:  6.60D-01  5.57D-01  6.26D-01
 E= -1843.66701186484     Delta-E=       -0.000001756905 Rises=F Damp=F
 DIIS: error= 2.40D-05 at cycle   9 NSaved=   9.
 NSaved= 9 IEnMin= 9 EnMin= -1843.66701186484     IErMin= 9 ErrMin= 2.40D-05
 ErrMax= 2.40D-05  0.00D+00 EMaxC= 1.00D-01 BMatC= 2.79D-07 BMatP= 1.86D-06
 IDIUse=1 WtCom= 1.00D+00 WtEn= 0.00D+00
 Coeff-Com: -0.809D-04-0.862D-04 0.102D-02 0.136D-02 0.961D-02 0.237D-01
 Coeff-Com:  0.725D-01 0.304D+00 0.588D+00
 Coeff:     -0.809D-04-0.862D-04 0.102D-02 0.136D-02 0.961D-02 0.237D-01
 Coeff:      0.725D-01 0.304D+00 0.588D+00
 Gap=     0.118 Goal=   None    Shift=    0.000
 RMSDP=1.54D-05 MaxDP=6.91D-04 DE=-1.76D-06 OVMax= 1.42D-04

 Cycle  10  Pass 1  IDiag  1:
 RMSU=  8.46D-06    CP:  6.75D-01  4.58D-01  5.55D-01  4.80D-01  6.27D-01
                    CP:  6.56D-01  5.67D-01  7.05D-01  8.03D-01
 E= -1843.66701215123     Delta-E=       -0.000000286385 Rises=F Damp=F
 DIIS: error= 6.64D-06 at cycle  10 NSaved=  10.
 NSaved=10 IEnMin=10 EnMin= -1843.66701215123     IErMin=10 ErrMin= 6.64D-06
 ErrMax= 6.64D-06  0.00D+00 EMaxC= 1.00D-01 BMatC= 2.24D-08 BMatP= 2.79D-07
 IDIUse=1 WtCom= 1.00D+00 WtEn= 0.00D+00
 Coeff-Com:  0.305D-04-0.126D-03-0.257D-03-0.624D-03 0.452D-03 0.228D-02
 Coeff-Com:  0.208D-01 0.122D+00 0.318D+00 0.537D+00
 Coeff:      0.305D-04-0.126D-03-0.257D-03-0.624D-03 0.452D-03 0.228D-02
 Coeff:      0.208D-01 0.122D+00 0.318D+00 0.537D+00
 Gap=     0.118 Goal=   None    Shift=    0.000
 RMSDP=9.61D-06 MaxDP=4.53D-04 DE=-2.86D-07 OVMax= 5.34D-05

 Cycle  11  Pass 1  IDiag  1:
 RMSU=  2.10D-06    CP:  6.75D-01  4.58D-01  5.55D-01  4.80D-01  6.26D-01
                    CP:  6.58D-01  5.86D-01  6.92D-01  7.50D-01  6.11D-01
 E= -1843.66701217748     Delta-E=       -0.000000026250 Rises=F Damp=F
 DIIS: error= 7.74D-07 at cycle  11 NSaved=  11.
 NSaved=11 IEnMin=11 EnMin= -1843.66701217748     IErMin=11 ErrMin= 7.74D-07
 ErrMax= 7.74D-07  0.00D+00 EMaxC= 1.00D-01 BMatC= 1.24D-09 BMatP= 2.24D-08
 IDIUse=1 WtCom= 1.00D+00 WtEn= 0.00D+00
 Coeff-Com:  0.160D-04-0.452D-04-0.170D-03-0.376D-03-0.395D-03-0.494D-03
 Coeff-Com:  0.452D-02 0.311D-01 0.983D-01 0.255D+00 0.613D+00
 Coeff:      0.160D-04-0.452D-04-0.170D-03-0.376D-03-0.395D-03-0.494D-03
 Coeff:      0.452D-02 0.311D-01 0.983D-01 0.255D+00 0.613D+00
 Gap=     0.118 Goal=   None    Shift=    0.000
 RMSDP=9.07D-07 MaxDP=3.75D-05 DE=-2.62D-08 OVMax= 8.73D-06

 Cycle  12  Pass 1  IDiag  1:
 RMSU=  6.58D-07    CP:  6.75D-01  4.58D-01  5.55D-01  4.80D-01  6.26D-01
                    CP:  6.59D-01  5.86D-01  6.89D-01  7.55D-01  6.33D-01
                    CP:  9.96D-01
 E= -1843.66701217881     Delta-E=       -0.000000001333 Rises=F Damp=F
 DIIS: error= 5.76D-07 at cycle  12 NSaved=  12.
 NSaved=12 IEnMin=12 EnMin= -1843.66701217881     IErMin=12 ErrMin= 5.76D-07
 ErrMax= 5.76D-07  0.00D+00 EMaxC= 1.00D-01 BMatC= 3.56D-10 BMatP= 1.24D-09
 IDIUse=1 WtCom= 1.00D+00 WtEn= 0.00D+00
 Coeff-Com:  0.538D-05-0.108D-04-0.708D-04-0.158D-03-0.288D-03-0.530D-03
 Coeff-Com:  0.390D-03 0.414D-02 0.215D-01 0.960D-01 0.395D+00 0.484D+00
 Coeff:      0.538D-05-0.108D-04-0.708D-04-0.158D-03-0.288D-03-0.530D-03
 Coeff:      0.390D-03 0.414D-02 0.215D-01 0.960D-01 0.395D+00 0.484D+00
 Gap=     0.118 Goal=   None    Shift=    0.000
 RMSDP=6.81D-07 MaxDP=2.29D-05 DE=-1.33D-09 OVMax= 4.38D-06

 Cycle  13  Pass 1  IDiag  1:
 RMSU=  2.37D-07    CP:  6.75D-01  4.58D-01  5.55D-01  4.80D-01  6.26D-01
                    CP:  6.58D-01  5.85D-01  6.90D-01  7.61D-01  6.42D-01
                    CP:  9.71D-01  7.45D-01
 E= -1843.66701217912     Delta-E=       -0.000000000306 Rises=F Damp=F
 DIIS: error= 1.22D-07 at cycle  13 NSaved=  13.
 NSaved=13 IEnMin=13 EnMin= -1843.66701217912     IErMin=13 ErrMin= 1.22D-07
 ErrMax= 1.22D-07  0.00D+00 EMaxC= 1.00D-01 BMatC= 1.47D-11 BMatP= 3.56D-10
 IDIUse=1 WtCom= 1.00D+00 WtEn= 0.00D+00
 Coeff-Com:  0.127D-05-0.112D-05-0.205D-04-0.457D-04-0.120D-03-0.242D-03
 Coeff-Com: -0.288D-03-0.135D-02 0.286D-03 0.217D-01 0.127D+00 0.228D+00
 Coeff-Com:  0.625D+00
 Coeff:      0.127D-05-0.112D-05-0.205D-04-0.457D-04-0.120D-03-0.242D-03
 Coeff:     -0.288D-03-0.135D-02 0.286D-03 0.217D-01 0.127D+00 0.228D+00
 Coeff:      0.625D+00
 Gap=     0.118 Goal=   None    Shift=    0.000
 RMSDP=1.28D-07 MaxDP=5.99D-06 DE=-3.06D-10 OVMax= 1.07D-06

 Cycle  14  Pass 1  IDiag  1:
 RMSU=  6.34D-08    CP:  6.75D-01  4.58D-01  5.55D-01  4.80D-01  6.26D-01
                    CP:  6.58D-01  5.85D-01  6.90D-01  7.60D-01  6.48D-01
                    CP:  9.76D-01  7.52D-01  7.48D-01
 E= -1843.66701217912     Delta-E=       -0.000000000001 Rises=F Damp=F
 DIIS: error= 4.94D-08 at cycle  14 NSaved=  14.
 NSaved=14 IEnMin=14 EnMin= -1843.66701217912     IErMin=14 ErrMin= 4.94D-08
 ErrMax= 4.94D-08  0.00D+00 EMaxC= 1.00D-01 BMatC= 3.17D-12 BMatP= 1.47D-11
 IDIUse=1 WtCom= 1.00D+00 WtEn= 0.00D+00
 Coeff-Com: -0.144D-06 0.111D-05-0.344D-06-0.194D-05-0.258D-04-0.626D-04
 Coeff-Com: -0.240D-03-0.164D-02-0.350D-02-0.141D-02 0.190D-01 0.682D-01
 Coeff-Com:  0.361D+00 0.558D+00
 Coeff:     -0.144D-06 0.111D-05-0.344D-06-0.194D-05-0.258D-04-0.626D-04
 Coeff:     -0.240D-03-0.164D-02-0.350D-02-0.141D-02 0.190D-01 0.682D-01
 Coeff:      0.361D+00 0.558D+00
 Gap=     0.118 Goal=   None    Shift=    0.000
 RMSDP=6.80D-08 MaxDP=4.15D-06 DE=-9.09D-13 OVMax= 3.70D-07

 Cycle  15  Pass 1  IDiag  1:
 RMSU=  3.01D-08    CP:  6.75D-01  4.58D-01  5.55D-01  4.80D-01  6.26D-01
                    CP:  6.59D-01  5.85D-01  6.90D-01  7.60D-01  6.48D-01
                    CP:  9.81D-01  7.50D-01  7.82D-01  8.42D-01
 E= -1843.66701217887     Delta-E=        0.000000000248 Rises=F Damp=F
 DIIS: error= 9.81D-09 at cycle  15 NSaved=  15.
 NSaved=15 IEnMin=14 EnMin= -1843.66701217912     IErMin=15 ErrMin= 9.81D-09
 ErrMax= 9.81D-09  0.00D+00 EMaxC= 1.00D-01 BMatC= 1.44D-13 BMatP= 3.17D-12
 IDIUse=1 WtCom= 1.00D+00 WtEn= 0.00D+00
 Coeff-Com: -0.130D-06 0.367D-06 0.189D-05 0.382D-05 0.318D-05 0.424D-05
 Coeff-Com: -0.356D-04-0.345D-03-0.104D-02-0.250D-02-0.761D-02-0.253D-02
 Coeff-Com:  0.432D-01 0.209D+00 0.762D+00
 Coeff:     -0.130D-06 0.367D-06 0.189D-05 0.382D-05 0.318D-05 0.424D-05
 Coeff:     -0.356D-04-0.345D-03-0.104D-02-0.250D-02-0.761D-02-0.253D-02
 Coeff:      0.432D-01 0.209D+00 0.762D+00
 Gap=     0.118 Goal=   None    Shift=    0.000
 RMSDP=1.37D-08 MaxDP=4.29D-07 DE= 2.48D-10 OVMax= 1.41D-07

 Cycle  16  Pass 1  IDiag  1:
 RMSU=  6.55D-09    CP:  6.75D-01  4.58D-01  5.55D-01  4.80D-01  6.26D-01
                    CP:  6.58D-01  5.85D-01  6.90D-01  7.60D-01  6.47D-01
                    CP:  9.81D-01  7.54D-01  7.89D-01  8.84D-01  7.31D-01
 E= -1843.66701217913     Delta-E=       -0.000000000260 Rises=F Damp=F
 DIIS: error= 2.37D-09 at cycle  16 NSaved=  16.
 NSaved=16 IEnMin=16 EnMin= -1843.66701217913     IErMin=16 ErrMin= 2.37D-09
 ErrMax= 2.37D-09  0.00D+00 EMaxC= 1.00D-01 BMatC= 1.14D-14 BMatP= 1.44D-13
 IDIUse=1 WtCom= 1.00D+00 WtEn= 0.00D+00
 Coeff-Com: -0.582D-07 0.145D-06 0.969D-06 0.199D-05 0.244D-05 0.402D-05
 Coeff-Com: -0.982D-05-0.121D-03-0.413D-03-0.118D-02-0.437D-02-0.327D-02
 Coeff-Com:  0.839D-02 0.799D-01 0.366D+00 0.555D+00
 Coeff:     -0.582D-07 0.145D-06 0.969D-06 0.199D-05 0.244D-05 0.402D-05
 Coeff:     -0.982D-05-0.121D-03-0.413D-03-0.118D-02-0.437D-02-0.327D-02
 Coeff:      0.839D-02 0.799D-01 0.366D+00 0.555D+00
 Gap=     0.118 Goal=   None    Shift=    0.000
 RMSDP=3.76D-09 MaxDP=1.49D-07 DE=-2.60D-10 OVMax= 2.40D-08

 SCF Done:  E(RB3LYP) =  -1843.66701218     A.U. after   16 cycles
            NFock= 16  Conv=0.38D-08     -V/T= 2.0091
 KE= 1.827065081872D+03 PE=-1.608233631255D+04 EE= 6.504831982047D+03
 Leave Link  502 at Sun Aug  6 07:11:37 2023, MaxMem= 64424509440 cpu:           10591.8 elap:             120.1
 (Enter /sob/g16/l801.exe)
 DoSCS=F DFT=T ScalE2(SS,OS)=  1.000000  1.000000
 Range of M.O.s used for correlation:     1   924
 NBasis=   960 NAE=   156 NBE=   156 NFC=     0 NFV=     0
 NROrb=    924 NOA=   156 NOB=   156 NVA=   768 NVB=   768

 **** Warning!!: The largest alpha MO coefficient is  0.12649702D+03

 Leave Link  801 at Sun Aug  6 07:11:38 2023, MaxMem= 64424509440 cpu:               1.6 elap:               0.1
 (Enter /sob/g16/l1002.exe)
 Minotr:  Closed shell wavefunction.
          Direct CPHF calculation.
          Differentiating once with respect to magnetic field using GIAOs.
          Electric field/nuclear overlap derivatives assumed to be zero.
          Requested convergence is 1.0D-08 RMS, and 1.0D-07 maximum.
          Secondary convergence is 1.0D-12 RMS, and 1.0D-12 maximum.
          NewPWx=T KeepS1=F KeepF1=F KeepIn=T MapXYZ=F SortEE=F KeepMc=T.
        25889 words used for storage of precomputed grid.
 Two-electron integral symmetry not used.
          MDV=   64424509440 using IRadAn=       1.
          Solving linear equations simultaneously, MaxMat=      96.
 FoFCou: FMM=F IPFlag=           0 FMFlag=      100000 FMFlg1=        2001
         NFxFlg=           0 DoJE=F BraDBF=F KetDBF=T FulRan=T
         wScrn=  0.000000 ICntrl=      6100 IOpCl=  0 I1Cent=           7 NGrid=         172
         NMat0=    1 NMatS0=      1 NMatT0=    0 NMatD0=    1 NMtDS0=    0 NMtDT0=    0
 Symmetry not used in FoFCou.
 FoFJK:  IHMeth= 1 ICntrl=    6127 DoSepK=F KAlg= 0 I1Cent=           0 FoldK=F
 IRaf=         1 NMat=       1 IRICut=       1 DoRegI=T DoRafI=F ISym2E= 0 IDoP0=0 IntGTp=1.
          There are     3 degrees of freedom in the 1st order CPHF.  IDoFFX=0 NUNeed=     3.
      3 vectors produced by pass  0 Test12= 3.99D-12 3.33D-08 XBig12= 1.37D+04 2.01D+01.
 AX will form     3 AO Fock derivatives at one time.
      3 vectors produced by pass  1 Test12= 3.99D-12 3.33D-08 XBig12= 1.90D+01 1.32D+00.
      3 vectors produced by pass  2 Test12= 3.99D-12 3.33D-08 XBig12= 1.33D-01 1.46D-01.
      3 vectors produced by pass  3 Test12= 3.99D-12 3.33D-08 XBig12= 4.20D-04 4.12D-03.
      3 vectors produced by pass  4 Test12= 3.99D-12 3.33D-08 XBig12= 9.20D-07 2.11D-04.
      3 vectors produced by pass  5 Test12= 3.99D-12 3.33D-08 XBig12= 2.86D-09 1.40D-05.
      3 vectors produced by pass  6 Test12= 3.99D-12 3.33D-08 XBig12= 1.42D-11 1.19D-06.
      2 vectors produced by pass  7 Test12= 3.99D-12 3.33D-08 XBig12= 5.10D-14 4.86D-08.
 InvSVY:  IOpt=1 It=  1 EMax= 1.30D-15
 Solved reduced A of dimension    23 with     3 vectors.
 Calculating GIAO nuclear magnetic shielding tensors.
 SCF GIAO Magnetic shielding tensor (ppm):
      1  C    Isotropic =    72.7205   Anisotropy =   154.0364
   XX=   168.8389   YX=    19.0027   ZX=    25.0407
   XY=    23.6881   YY=    64.0616   ZY=   -30.6499
   XZ=    26.4017   YZ=   -13.7610   ZZ=   -14.7389
   Eigenvalues:   -25.3438    68.0939   175.4115
      2  H    Isotropic =    25.0784   Anisotropy =     9.6125
   XX=    24.7650   YX=    -4.5682   ZX=     3.6097
   XY=    -2.7306   YY=    26.9489   ZY=    -4.1045
   XZ=     2.5281   YZ=    -0.7563   ZZ=    23.5214
   Eigenvalues:    20.9504    22.7981    31.4868
      3  C    Isotropic =    73.7015   Anisotropy =   135.0861
   XX=   151.4019   YX=    31.8399   ZX=    28.5154
   XY=    37.3820   YY=    26.4882   ZY=   -34.0228
   XZ=    30.2855   YZ=   -40.3337   ZZ=    43.2143
   Eigenvalues:   -15.5961    72.9416   163.7589
      4  H    Isotropic =    25.6474   Anisotropy =     8.8446
   XX=    23.0985   YX=    -7.3109   ZX=     1.1676
   XY=    -2.0284   YY=    26.1231   ZY=    -3.0232
   XZ=     0.6278   YZ=    -2.4901   ZZ=    27.7205
   Eigenvalues:    19.5935    25.8049    31.5438
      5  C    Isotropic =    64.0699   Anisotropy =   192.7796
   XX=   178.1187   YX=    22.1080   ZX=    50.4179
   XY=    33.5425   YY=     8.8944   ZY=     9.1478
   XZ=    34.2952   YZ=     9.6867   ZZ=     5.1965
   Eigenvalues:    -5.4622     5.0822   192.5896
      6  C    Isotropic =    68.6447   Anisotropy =   136.9047
   XX=   145.8358   YX=    38.0136   ZX=    27.6532
   XY=    40.3342   YY=    -5.4677   ZY=   -19.1451
   XZ=    21.8446   YZ=   -11.5024   ZZ=    65.5660
   Eigenvalues:   -20.1710    66.1907   159.9145
      7  H    Isotropic =    24.4984   Anisotropy =     7.9359
   XX=    19.5844   YX=    -3.7452   ZX=     1.6560
   XY=    -1.6795   YY=    25.2599   ZY=    -2.2148
   XZ=    -0.5564   YZ=    -1.6021   ZZ=    28.6508
   Eigenvalues:    18.4924    25.2137    29.7889
      8  C    Isotropic =    68.1560   Anisotropy =   129.4066
   XX=   141.3124   YX=    37.4978   ZX=    11.4527
   XY=    34.7767   YY=     3.8998   ZY=    39.4208
   XZ=    11.0767   YZ=    30.5021   ZZ=    59.2559
   Eigenvalues:   -18.0265    68.0674   154.4271
      9  H    Isotropic =    24.0141   Anisotropy =     7.1166
   XX=    18.4849   YX=    -3.4340   ZX=     0.6156
   XY=    -2.1680   YY=    25.1207   ZY=     0.9307
   XZ=    -1.1255   YZ=     0.8349   ZZ=    28.4366
   Eigenvalues:    17.4603    25.8234    28.7584
     10  C    Isotropic =    62.4350   Anisotropy =   189.8976
   XX=   163.4172   YX=    59.9180   ZX=    39.9601
   XY=    52.0645   YY=    19.0144   ZY=     7.5667
   XZ=    28.0442   YZ=     6.5476   ZZ=     4.8733
   Eigenvalues:    -5.1839     3.4555   189.0334
     11  C    Isotropic =    66.7710   Anisotropy =   130.5004
   XX=   141.1762   YX=    38.8475   ZX=     2.0769
   XY=    34.1528   YY=    31.0950   ZY=    40.6174
   XZ=    -1.8732   YZ=    50.9851   ZZ=    28.0419
   Eigenvalues:   -20.4059    66.9477   153.7713
     12  H    Isotropic =    23.9476   Anisotropy =     7.5228
   XX=    18.1949   YX=    -1.5951   ZX=    -0.1985
   XY=    -2.4005   YY=    25.7727   ZY=     1.4032
   XZ=    -1.2652   YZ=     1.7465   ZZ=    27.8752
   Eigenvalues:    17.6893    25.1907    28.9628
     13  C    Isotropic =    67.1718   Anisotropy =   127.2340
   XX=   141.8504   YX=    28.3912   ZX=     2.5757
   XY=    25.7989   YY=    74.9544   ZY=    22.8138
   XZ=     4.8982   YZ=    12.8888   ZZ=   -15.2893
   Eigenvalues:   -18.7050    68.2260   151.9945
     14  H    Isotropic =    23.9351   Anisotropy =     7.3155
   XX=    18.2082   YX=    -2.3468   ZX=     0.4416
   XY=    -3.1002   YY=    28.0868   ZY=     0.4864
   XZ=    -0.2199   YZ=     0.1540   ZZ=    25.5102
   Eigenvalues:    17.5027    25.4904    28.8120
     15  C    Isotropic =    62.9178   Anisotropy =   186.9133
   XX=   159.4544   YX=    77.0216   ZX=     0.0000
   XY=    58.9377   YY=    22.9075   ZY=     0.0000
   XZ=    -0.0000   YZ=     0.0000   ZZ=     6.3915
   Eigenvalues:    -5.1648     6.3915   187.5267
     16  C    Isotropic =    67.1718   Anisotropy =   127.2340
   XX=   141.8504   YX=    28.3912   ZX=    -2.5757
   XY=    25.7989   YY=    74.9544   ZY=   -22.8138
   XZ=    -4.8982   YZ=   -12.8888   ZZ=   -15.2893
   Eigenvalues:   -18.7050    68.2260   151.9945
     17  H    Isotropic =    23.9351   Anisotropy =     7.3155
   XX=    18.2082   YX=    -2.3468   ZX=    -0.4416
   XY=    -3.1002   YY=    28.0868   ZY=    -0.4864
   XZ=     0.2199   YZ=    -0.1540   ZZ=    25.5102
   Eigenvalues:    17.5027    25.4904    28.8120
     18  C    Isotropic =    66.7710   Anisotropy =   130.5004
   XX=   141.1762   YX=    38.8475   ZX=    -2.0769
   XY=    34.1528   YY=    31.0950   ZY=   -40.6174
   XZ=     1.8732   YZ=   -50.9851   ZZ=    28.0419
   Eigenvalues:   -20.4059    66.9477   153.7713
     19  H    Isotropic =    23.9476   Anisotropy =     7.5228
   XX=    18.1949   YX=    -1.5951   ZX=     0.1985
   XY=    -2.4005   YY=    25.7727   ZY=    -1.4032
   XZ=     1.2652   YZ=    -1.7465   ZZ=    27.8752
   Eigenvalues:    17.6893    25.1907    28.9628
     20  C    Isotropic =    62.4350   Anisotropy =   189.8976
   XX=   163.4172   YX=    59.9180   ZX=   -39.9601
   XY=    52.0645   YY=    19.0144   ZY=    -7.5667
   XZ=   -28.0442   YZ=    -6.5476   ZZ=     4.8733
   Eigenvalues:    -5.1839     3.4555   189.0334
     21  C    Isotropic =    68.1560   Anisotropy =   129.4066
   XX=   141.3124   YX=    37.4978   ZX=   -11.4527
   XY=    34.7767   YY=     3.8998   ZY=   -39.4208
   XZ=   -11.0767   YZ=   -30.5021   ZZ=    59.2559
   Eigenvalues:   -18.0265    68.0674   154.4271
     22  H    Isotropic =    24.0141   Anisotropy =     7.1166
   XX=    18.4849   YX=    -3.4340   ZX=    -0.6156
   XY=    -2.1680   YY=    25.1207   ZY=    -0.9307
   XZ=     1.1255   YZ=    -0.8349   ZZ=    28.4366
   Eigenvalues:    17.4603    25.8234    28.7584
     23  C    Isotropic =    68.6447   Anisotropy =   136.9047
   XX=   145.8358   YX=    38.0136   ZX=   -27.6532
   XY=    40.3342   YY=    -5.4677   ZY=    19.1451
   XZ=   -21.8446   YZ=    11.5024   ZZ=    65.5660
   Eigenvalues:   -20.1710    66.1907   159.9145
     24  H    Isotropic =    24.4984   Anisotropy =     7.9359
   XX=    19.5844   YX=    -3.7452   ZX=    -1.6560
   XY=    -1.6795   YY=    25.2599   ZY=     2.2148
   XZ=     0.5564   YZ=     1.6021   ZZ=    28.6508
   Eigenvalues:    18.4924    25.2137    29.7889
     25  C    Isotropic =    64.0699   Anisotropy =   192.7796
   XX=   178.1187   YX=    22.1080   ZX=   -50.4179
   XY=    33.5425   YY=     8.8944   ZY=    -9.1478
   XZ=   -34.2952   YZ=    -9.6867   ZZ=     5.1965
   Eigenvalues:    -5.4622     5.0822   192.5896
     26  C    Isotropic =    73.7015   Anisotropy =   135.0861
   XX=   151.4019   YX=    31.8399   ZX=   -28.5154
   XY=    37.3820   YY=    26.4882   ZY=    34.0228
   XZ=   -30.2855   YZ=    40.3337   ZZ=    43.2143
   Eigenvalues:   -15.5961    72.9416   163.7589
     27  H    Isotropic =    25.6474   Anisotropy =     8.8446
   XX=    23.0985   YX=    -7.3109   ZX=    -1.1676
   XY=    -2.0284   YY=    26.1231   ZY=     3.0232
   XZ=    -0.6278   YZ=     2.4901   ZZ=    27.7205
   Eigenvalues:    19.5935    25.8049    31.5438
     28  C    Isotropic =    72.7205   Anisotropy =   154.0364
   XX=   168.8389   YX=    19.0027   ZX=   -25.0407
   XY=    23.6881   YY=    64.0616   ZY=    30.6499
   XZ=   -26.4017   YZ=    13.7610   ZZ=   -14.7389
   Eigenvalues:   -25.3438    68.0939   175.4115
     29  H    Isotropic =    25.0784   Anisotropy =     9.6125
   XX=    24.7650   YX=    -4.5682   ZX=    -3.6097
   XY=    -2.7306   YY=    26.9489   ZY=     4.1045
   XZ=    -2.5281   YZ=     0.7563   ZZ=    23.5214
   Eigenvalues:    20.9504    22.7981    31.4868
     30  C    Isotropic =    63.4241   Anisotropy =   198.9150
   XX=   195.8311   YX=   -17.4557   ZX=    -3.9665
   XY=    29.5949   YY=    -5.2967   ZY=    -2.4067
   XZ=     8.3207   YZ=   -10.6645   ZZ=    -0.2620
   Eigenvalues:    -9.9722     4.2104   196.0341
     31  C    Isotropic =    65.6091   Anisotropy =   185.3134
   XX=   173.7442   YX=   -44.1274   ZX=    18.0416
   XY=   -16.4493   YY=    10.2535   ZY=    -6.2472
   XZ=    63.0757   YZ=   -16.5136   ZZ=    12.8296
   Eigenvalues:    -0.2161     7.8920   189.1514
     32  C    Isotropic =    67.1645   Anisotropy =   179.3741
   XX=   157.4711   YX=   -39.8236   ZX=    17.2301
   XY=   -72.1547   YY=    26.2268   ZY=    -3.3510
   XZ=    59.2754   YZ=    -9.8134   ZZ=    17.7957
   Eigenvalues:     0.2607    14.4857   186.7473
     33  C    Isotropic =    65.5725   Anisotropy =   174.6754
   XX=   147.6570   YX=   -42.8770   ZX=     0.0000
   XY=   -99.1345   YY=    35.3122   ZY=     0.0000
   XZ=    -0.0000   YZ=    -0.0000   ZZ=    13.7482
   Eigenvalues:     0.9465    13.7482   182.0227
     34  C    Isotropic =    67.1645   Anisotropy =   179.3741
   XX=   157.4711   YX=   -39.8236   ZX=   -17.2301
   XY=   -72.1547   YY=    26.2268   ZY=     3.3510
   XZ=   -59.2754   YZ=     9.8134   ZZ=    17.7957
   Eigenvalues:     0.2607    14.4857   186.7473
     35  C    Isotropic =    65.6091   Anisotropy =   185.3134
   XX=   173.7442   YX=   -44.1274   ZX=   -18.0416
   XY=   -16.4493   YY=    10.2535   ZY=     6.2472
   XZ=   -63.0757   YZ=    16.5136   ZZ=    12.8296
   Eigenvalues:    -0.2161     7.8920   189.1514
     36  C    Isotropic =    63.4241   Anisotropy =   198.9150
   XX=   195.8311   YX=   -17.4557   ZX=     3.9665
   XY=    29.5949   YY=    -5.2967   ZY=     2.4067
   XZ=    -8.3207   YZ=    10.6645   ZZ=    -0.2620
   Eigenvalues:    -9.9722     4.2104   196.0341
     37  C    Isotropic =    63.4241   Anisotropy =   198.9150
   XX=   195.8311   YX=    17.4557   ZX=    -3.9665
   XY=   -29.5949   YY=    -5.2967   ZY=     2.4067
[...]
 Alpha virt. eigenvalues --    1.37133   1.37297   1.37937   1.38467   1.38848
 Alpha virt. eigenvalues --    1.39763   1.40343   1.40998   1.41529   1.42399
 Alpha virt. eigenvalues --    1.42426   1.42867   1.42874   1.44200   1.44800
 Alpha virt. eigenvalues --    1.45693   1.45930   1.46097   1.46461   1.46507
 Alpha virt. eigenvalues --    1.46678   1.47176   1.47856   1.48588   1.48669
 Alpha virt. eigenvalues --    1.49477   1.49567   1.49876   1.50530   1.50675
 Alpha virt. eigenvalues --    1.51338   1.52272   1.52318   1.53130   1.53513
 Alpha virt. eigenvalues --    1.53658   1.54015   1.54689   1.54826   1.56043
 Alpha virt. eigenvalues --    1.56327   1.58120   1.59045   1.59224   1.59496
 Alpha virt. eigenvalues --    1.60785   1.60815   1.61040   1.61480   1.62619
 Alpha virt. eigenvalues --    1.63201   1.64129   1.64354   1.65330   1.66209
 Alpha virt. eigenvalues --    1.66653   1.68277   1.69653   1.70882   1.71558
 Alpha virt. eigenvalues --    1.72157   1.73671   1.75041   1.75919   1.76203
 Alpha virt. eigenvalues --    1.76681   1.77383   1.78389   1.78634   1.78662
 Alpha virt. eigenvalues --    1.79700   1.80187   1.80612   1.80734   1.82317
 Alpha virt. eigenvalues --    1.82475   1.82541   1.82823   1.84178   1.84180
 Alpha virt. eigenvalues --    1.84748   1.85097   1.85727   1.85824   1.85957
 Alpha virt. eigenvalues --    1.87591   1.87615   1.87861   1.88062   1.88390
 Alpha virt. eigenvalues --    1.89548   1.90162   1.91114   1.91363   1.91980
 Alpha virt. eigenvalues --    1.92168   1.93319   1.93430   1.93877   1.94317
 Alpha virt. eigenvalues --    1.94708   1.94805   1.94938   1.95219   1.96851
 Alpha virt. eigenvalues --    1.97995   1.98041   1.98729   1.98890   2.00313
 Alpha virt. eigenvalues --    2.00686   2.01114   2.01671   2.01672   2.02725
 Alpha virt. eigenvalues --    2.02816   2.04028   2.04181   2.05386   2.06483
 Alpha virt. eigenvalues --    2.06974   2.06978   2.06983   2.07484   2.07947
 Alpha virt. eigenvalues --    2.08055   2.08168   2.08475   2.08595   2.10327
 Alpha virt. eigenvalues --    2.10860   2.12170   2.13303   2.15308   2.15582
 Alpha virt. eigenvalues --    2.15866   2.16502   2.17654   2.17724   2.18423
 Alpha virt. eigenvalues --    2.19799   2.20407   2.22501   2.22603   2.22668
 Alpha virt. eigenvalues --    2.24288   2.24347   2.24689   2.24837   2.25167
 Alpha virt. eigenvalues --    2.25697   2.26774   2.27435   2.27656   2.28457
 Alpha virt. eigenvalues --    2.29779   2.30314   2.31033   2.31200   2.31312
 Alpha virt. eigenvalues --    2.31401   2.32119   2.32850   2.33020   2.33468
 Alpha virt. eigenvalues --    2.33750   2.34338   2.34958   2.35062   2.35634
 Alpha virt. eigenvalues --    2.36157   2.36317   2.36319   2.37179   2.38064
 Alpha virt. eigenvalues --    2.38230   2.39411   2.39436   2.39671   2.40028
 Alpha virt. eigenvalues --    2.40376   2.40609   2.41142   2.42034   2.42201
 Alpha virt. eigenvalues --    2.43137   2.43843   2.44644   2.45264   2.45305
 Alpha virt. eigenvalues --    2.45361   2.47480   2.48017   2.48260   2.48813
 Alpha virt. eigenvalues --    2.52052   2.52667   2.54588   2.55605   2.56990
 Alpha virt. eigenvalues --    2.57924   2.58967   2.59321   2.59951   2.60607
 Alpha virt. eigenvalues --    2.60619   2.61770   2.61901   2.62523   2.62566
 Alpha virt. eigenvalues --    2.62878   2.64488   2.65078   2.65362   2.66130
 Alpha virt. eigenvalues --    2.68768   2.70208   2.70324   2.71024   2.73681
 Alpha virt. eigenvalues --    2.73740   2.73800   2.75390   2.75530   2.77056
 Alpha virt. eigenvalues --    2.78162   2.78626   2.79021   2.79161   2.79727
 Alpha virt. eigenvalues --    2.80208   2.80676   2.81075   2.81278   2.82464
 Alpha virt. eigenvalues --    2.82548   2.82611   2.83458   2.85710   2.85836
 Alpha virt. eigenvalues --    2.87250   2.89183   2.89765   2.90261   2.90369
 Alpha virt. eigenvalues --    2.91371   2.92138   2.92935   2.93315   2.94593
 Alpha virt. eigenvalues --    2.95308   2.96084   2.96248   2.97111   2.99957
 Alpha virt. eigenvalues --    3.00550   3.01657   3.01841   3.03373   3.04185
 Alpha virt. eigenvalues --    3.04338   3.05050   3.07741   3.09885   3.10664
 Alpha virt. eigenvalues --    3.15965   3.18791   3.20908   3.30062   3.30324
 Alpha virt. eigenvalues --    3.32297   3.32535   3.37836   3.39301   3.41531
 Alpha virt. eigenvalues --    3.43928   3.48351   3.50174   3.51655   3.56887
 Alpha virt. eigenvalues --    4.32054   4.33036   4.36804   4.36990   4.37172
 Alpha virt. eigenvalues --    4.37328   4.38426   4.38892   4.40114   4.41032
 Alpha virt. eigenvalues --    4.41126   4.41242   4.43155   4.43233   4.43657
 Alpha virt. eigenvalues --    4.44659   4.48873   4.48940   4.49772   4.49826
 Alpha virt. eigenvalues --    4.50764   4.52389   4.53304   4.53485   4.53632
 Alpha virt. eigenvalues --    4.55149   4.55316   4.55602   4.57344   4.58427
 Alpha virt. eigenvalues --    4.60661   4.61392   4.64202   4.66271   4.66295
 Alpha virt. eigenvalues --    4.66298   4.68425   4.70035   4.72391   4.72798
 Alpha virt. eigenvalues --    4.73060   4.75214   4.78529   4.78813   4.79749
 Alpha virt. eigenvalues --    4.90663   4.94634   4.97259
          Condensed to atoms (all electrons):
 Mulliken charges:
               1
     1  C   -0.615219
     2  H    0.215323
     3  C   -0.498682
     4  H    0.179768
     5  C    1.038776
     6  C   -0.410976
     7  H    0.183569
     8  C   -0.448907
     9  H    0.183168
    10  C    0.625813
    11  C   -0.561938
    12  H    0.184648
    13  C   -0.444784
    14  H    0.184324
    15  C    1.091265
    16  C   -0.444784
    17  H    0.184324
    18  C   -0.561938
    19  H    0.184648
    20  C    0.625813
    21  C   -0.448907
    22  H    0.183168
    23  C   -0.410976
    24  H    0.183569
    25  C    1.038776
    26  C   -0.498682
    27  H    0.179768
    28  C   -0.615219
    29  H    0.215323
    30  C    0.095307
    31  C   -0.106615
    32  C   -0.173212
    33  C   -0.351989
    34  C   -0.173212
    35  C   -0.106615
    36  C    0.095307
    37  C    0.095307
    38  C   -0.106615
    39  C   -0.173212
    40  C   -0.351989
    41  C   -0.173211
    42  C   -0.106615
    43  C    0.095307
    44  C   -0.615219
    45  H    0.215323
    46  C   -0.498682
    47  H    0.179768
    48  C    1.038776
    49  C   -0.410976
    50  H    0.183569
    51  C   -0.448907
    52  H    0.183168
    53  C    0.625813
    54  C   -0.561938
    55  H    0.184648
    56  C   -0.444784
    57  H    0.184324
    58  C    1.091265
    59  C   -0.444784
    60  H    0.184324
    61  C   -0.561938
    62  H    0.184648
    63  C    0.625813
    64  C   -0.448907
    65  H    0.183168
    66  C   -0.410976
    67  H    0.183569
    68  C    1.038776
    69  C   -0.498682
    70  H    0.179768
    71  C   -0.615219
    72  H    0.215323
    73  Bq   0.000000
    74  Bq   0.000000
    75  Bq   0.000000
    76  Bq   0.000000
    77  Bq   0.000000
    78  Bq   0.000000
    79  Bq   0.000000
    80  Bq   0.000000
    81  Bq   0.000000
    82  Bq   0.000000
    83  Bq   0.000000
    84  Bq   0.000000
    85  Bq   0.000000
    86  Bq   0.000000
    87  Bq   0.000000
    88  Bq   0.000000
    89  Bq   0.000000
    90  Bq   0.000000
    91  Bq   0.000000
    92  Bq   0.000000
    93  Bq   0.000000
    94  Bq   0.000000
    95  Bq   0.000000
    96  Bq   0.000000
    97  Bq   0.000000
    98  Bq   0.000000
    99  Bq   0.000000
   100  Bq   0.000000
   101  Bq   0.000000
   102  Bq   0.000000
   103  Bq   0.000000
   104  Bq   0.000000
   105  Bq   0.000000
   106  Bq   0.000000
   107  Bq   0.000000
   108  Bq   0.000000
   109  Bq   0.000000
   110  Bq   0.000000
   111  Bq   0.000000
   112  Bq   0.000000
   113  Bq   0.000000
   114  Bq   0.000000
   115  Bq   0.000000
   116  Bq   0.000000
   117  Bq   0.000000
   118  Bq   0.000000
   119  Bq   0.000000
   120  Bq   0.000000
   121  Bq   0.000000
   122  Bq   0.000000
   123  Bq   0.000000
   124  Bq   0.000000
   125  Bq   0.000000
   126  Bq   0.000000
   127  Bq   0.000000
   128  Bq   0.000000
   129  Bq   0.000000
   130  Bq   0.000000
   131  Bq   0.000000
   132  Bq   0.000000
   133  Bq   0.000000
   134  Bq   0.000000
   135  Bq   0.000000
   136  Bq   0.000000
   137  Bq   0.000000
   138  Bq   0.000000
   139  Bq   0.000000
   140  Bq   0.000000
   141  Bq   0.000000
   142  Bq   0.000000
   143  Bq   0.000000
   144  Bq   0.000000
   145  Bq   0.000000
   146  Bq   0.000000
   147  Bq   0.000000
   148  Bq   0.000000
   149  Bq   0.000000
   150  Bq   0.000000
   151  Bq   0.000000
   152  Bq   0.000000
   153  Bq   0.000000
   154  Bq   0.000000
   155  Bq   0.000000
   156  Bq   0.000000
   157  Bq   0.000000
   158  Bq   0.000000
   159  Bq   0.000000
   160  Bq   0.000000
   161  Bq   0.000000
   162  Bq   0.000000
   163  Bq   0.000000
   164  Bq   0.000000
   165  Bq   0.000000
   166  Bq   0.000000
   167  Bq   0.000000
   168  Bq   0.000000
   169  Bq   0.000000
   170  Bq   0.000000
   171  Bq   0.000000
   172  Bq   0.000000
 Sum of Mulliken charges =  -0.00000
 Mulliken charges with hydrogens summed into heavy atoms:
               1
     1  C   -0.399896
     3  C   -0.318914
     5  C    1.038776
     6  C   -0.227407
     8  C   -0.265740
    10  C    0.625813
    11  C   -0.377290
    13  C   -0.260460
    15  C    1.091265
    16  C   -0.260460
    18  C   -0.377290
    20  C    0.625813
    21  C   -0.265740
    23  C   -0.227407
    25  C    1.038776
    26  C   -0.318914
    28  C   -0.399896
    30  C    0.095307
    31  C   -0.106615
    32  C   -0.173212
    33  C   -0.351989
    34  C   -0.173212
    35  C   -0.106615
    36  C    0.095307
    37  C    0.095307
    38  C   -0.106615
    39  C   -0.173212
    40  C   -0.351989
    41  C   -0.173211
    42  C   -0.106615
    43  C    0.095307
    44  C   -0.399896
    46  C   -0.318914
    48  C    1.038776
    49  C   -0.227407
    51  C   -0.265740
    53  C    0.625813
    54  C   -0.377290
    56  C   -0.260460
    58  C    1.091265
    59  C   -0.260460
    61  C   -0.377290
    63  C    0.625813
    64  C   -0.265740
    66  C   -0.227407
    68  C    1.038776
    69  C   -0.318914
    71  C   -0.399896
    73  Bq   0.000000
    74  Bq   0.000000
    75  Bq   0.000000
    76  Bq   0.000000
    77  Bq   0.000000
    78  Bq   0.000000
    79  Bq   0.000000
    80  Bq   0.000000
    81  Bq   0.000000
    82  Bq   0.000000
    83  Bq   0.000000
    84  Bq   0.000000
    85  Bq   0.000000
    86  Bq   0.000000
    87  Bq   0.000000
    88  Bq   0.000000
    89  Bq   0.000000
    90  Bq   0.000000
    91  Bq   0.000000
    92  Bq   0.000000
    93  Bq   0.000000
    94  Bq   0.000000
    95  Bq   0.000000
    96  Bq   0.000000
    97  Bq   0.000000
    98  Bq   0.000000
    99  Bq   0.000000
   100  Bq   0.000000
   101  Bq   0.000000
   102  Bq   0.000000
   103  Bq   0.000000
   104  Bq   0.000000
   105  Bq   0.000000
   106  Bq   0.000000
   107  Bq   0.000000
   108  Bq   0.000000
   109  Bq   0.000000
   110  Bq   0.000000
   111  Bq   0.000000
   112  Bq   0.000000
   113  Bq   0.000000
   114  Bq   0.000000
   115  Bq   0.000000
   116  Bq   0.000000
   117  Bq   0.000000
   118  Bq   0.000000
   119  Bq   0.000000
   120  Bq   0.000000
   121  Bq   0.000000
   122  Bq   0.000000
   123  Bq   0.000000
   124  Bq   0.000000
   125  Bq   0.000000
   126  Bq   0.000000
   127  Bq   0.000000
   128  Bq   0.000000
   129  Bq   0.000000
   130  Bq   0.000000
   131  Bq   0.000000
   132  Bq   0.000000
   133  Bq   0.000000
   134  Bq   0.000000
   135  Bq   0.000000
   136  Bq   0.000000
   137  Bq   0.000000
   138  Bq   0.000000
   139  Bq   0.000000
   140  Bq   0.000000
   141  Bq   0.000000
   142  Bq   0.000000
   143  Bq   0.000000
   144  Bq   0.000000
   145  Bq   0.000000
   146  Bq   0.000000
   147  Bq   0.000000
   148  Bq   0.000000
   149  Bq   0.000000
   150  Bq   0.000000
   151  Bq   0.000000
   152  Bq   0.000000
   153  Bq   0.000000
   154  Bq   0.000000
   155  Bq   0.000000
   156  Bq   0.000000
   157  Bq   0.000000
   158  Bq   0.000000
   159  Bq   0.000000
   160  Bq   0.000000
   161  Bq   0.000000
   162  Bq   0.000000
   163  Bq   0.000000
   164  Bq   0.000000
   165  Bq   0.000000
   166  Bq   0.000000
   167  Bq   0.000000
   168  Bq   0.000000
   169  Bq   0.000000
   170  Bq   0.000000
   171  Bq   0.000000
   172  Bq   0.000000
 Electronic spatial extent (au):  <R**2>=          19213.7882
 Charge=             -0.0000 electrons
 Dipole moment (field-independent basis, Debye):
    X=             -0.0000    Y=              0.0000    Z=              0.0000  Tot=              0.0000
 Quadrupole moment (field-independent basis, Debye-Ang):
   XX=           -286.4206   YY=           -243.6658   ZZ=           -244.2275
   XY=             -0.0000   XZ=             -0.0000   YZ=              0.0000
 Traceless Quadrupole moment (field-independent basis, Debye-Ang):
   XX=            -28.3160   YY=             14.4388   ZZ=             13.8771
   XY=             -0.0000   XZ=             -0.0000   YZ=              0.0000
 Octapole moment (field-independent basis, Debye-Ang**2):
  XXX=              0.0000  YYY=              0.0000  ZZZ=              0.0000  XYY=             -0.0000
  XXY=              0.0000  XXZ=             -0.0000  XZZ=              0.0000  YZZ=              0.0000
  YYZ=              0.0000  XYZ=             19.7130
 Hexadecapole moment (field-independent basis, Debye-Ang**3):
 XXXX=          -3504.3696 YYYY=          -7237.6128 ZZZZ=         -14936.6450 XXXY=             -0.0000
 XXXZ=             -0.0000 YYYX=             -0.0000 YYYZ=             -0.0000 ZZZX=              0.0000
 ZZZY=             -0.0000 XXYY=          -1800.0129 XXZZ=          -3516.3759 YYZZ=          -3700.8243
 XXYZ=              0.0000 YYXZ=             -0.0000 ZZXY=             -0.0000
 N-N= 5.906772236456D+03 E-N=-1.608233631264D+04  KE= 1.827065081872D+03
 Leave Link  601 at Sun Aug  6 07:14:10 2023, MaxMem= 64424509440 cpu:               3.3 elap:               0.2
 (Enter /sob/g16/l9999.exe)

 Test job not archived.
 1\1\GINC-7R32\SP\RB3LYP\6-31+G(d)\C48H24\ROOT\06-Aug-2023\0\\#p b3lyp/
 6-31+G* NMR geom=connectivity\\template file\\0,1\C,0,-1.752,1.338,1.2
 72\H,0,-1.892,1.42,2.344\C,0,-1.928,2.42,0.465\H,0,-2.234,3.376,0.881\
 C,0,-1.642,2.348,-0.926\C,0,-1.727,3.522,-1.713\H,0,-2.03,4.453,-1.24\
 C,0,-1.48,3.457,-3.048\H,0,-1.612,4.328,-3.685\C,0,-1.001,2.26,-3.646\
 C,0,-0.794,2.272,-5.05\H,0,-1.02,3.181,-5.602\C,0,-0.398,1.142,-5.683\
 H,0,-0.329,1.098,-6.767\C,0,0.,0.,-4.938\C,0,0.398,-1.142,-5.683\H,0,0
 .329,-1.098,-6.767\C,0,0.794,-2.272,-5.05\H,0,1.02,-3.181,-5.602\C,0,1
 .001,-2.26,-3.646\C,0,1.48,-3.457,-3.048\H,0,1.612,-4.328,-3.685\C,0,1
 .727,-3.522,-1.713\H,0,2.03,-4.453,-1.24\C,0,1.642,-2.348,-0.926\C,0,1
 .928,-2.42,0.465\H,0,2.234,-3.376,0.881\C,0,1.752,-1.338,1.272\H,0,1.8
 92,-1.42,2.344\C,0,1.477,-0.064,0.706\C,0,1.283,1.108,1.519\C,0,0.759,
 1.086,2.87\C,0,0.,0.,3.509\C,0,-0.759,-1.086,2.87\C,0,-1.283,-1.108,1.
 519\C,0,-1.477,0.064,0.706\C,0,-1.477,-0.064,-0.706\C,0,-1.283,1.108,-
 1.519\C,0,-0.759,1.086,-2.87\C,0,0.,0.,-3.509\C,0,0.759,-1.086,-2.87\C
 ,0,1.283,-1.108,-1.519\C,0,1.477,0.064,-0.706\C,0,1.752,1.338,-1.272\H
 ,0,1.892,1.42,-2.344\C,0,1.928,2.42,-0.465\H,0,2.234,3.376,-0.881\C,0,
 1.642,2.348,0.926\C,0,1.727,3.522,1.713\H,0,2.03,4.453,1.24\C,0,1.48,3
 .457,3.048\H,0,1.612,4.328,3.685\C,0,1.001,2.26,3.646\C,0,0.794,2.272,
 5.05\H,0,1.02,3.181,5.602\C,0,0.398,1.142,5.683\H,0,0.329,1.098,6.767\
 C,0,0.,0.,4.938\C,0,-0.398,-1.142,5.683\H,0,-0.329,-1.098,6.767\C,0,-0
 .794,-2.272,5.05\H,0,-1.02,-3.181,5.602\C,0,-1.001,-2.26,3.646\C,0,-1.
 48,-3.457,3.048\H,0,-1.612,-4.328,3.685\C,0,-1.727,-3.522,1.713\H,0,-2
 .03,-4.453,1.24\C,0,-1.642,-2.348,0.926\C,0,-1.928,-2.42,-0.465\H,0,-2
 .234,-3.376,-0.881\C,0,-1.752,-1.338,-1.272\H,0,-1.892,-1.42,-2.344\Bq
 ,0,-11.405823,0.190253,1.449347\Bq,0,-11.306705,0.176187,1.435899\Bq,0
 ,-11.207587,0.16212,1.422451\Bq,0,-11.108469,0.148054,1.409003\Bq,0,-1
 1.009352,0.133987,1.395555\Bq,0,-10.910234,0.11992,1.382107\Bq,0,-10.8
 11116,0.105854,1.368659\Bq,0,-10.711999,0.091787,1.355211\Bq,0,-10.612
 881,0.077721,1.341763\Bq,0,-10.513763,0.063654,1.328315\Bq,0,-10.41464
 5,0.049588,1.314867\Bq,0,-10.315528,0.035521,1.301419\Bq,0,-10.21641,0
 .021455,1.287972\Bq,0,-10.117292,0.007388,1.274524\Bq,0,-10.018174,-0.
 006678,1.261076\Bq,0,-9.919057,-0.020745,1.247628\Bq,0,-9.819939,-0.03
 4811,1.23418\Bq,0,-9.720821,-0.048878,1.220732\Bq,0,-9.621703,-0.06294
 4,1.207284\Bq,0,-9.522586,-0.077011,1.193836\Bq,0,-9.423468,-0.091077,
 1.180388\Bq,0,-9.32435,-0.105144,1.16694\Bq,0,-9.225232,-0.119211,1.15
 3492\Bq,0,-9.126115,-0.133277,1.140044\Bq,0,-9.026997,-0.147344,1.1265
 96\Bq,0,-8.927879,-0.16141,1.113148\Bq,0,-8.828762,-0.175477,1.0997\Bq
 ,0,-8.729644,-0.189543,1.086252\Bq,0,-8.630526,-0.20361,1.072804\Bq,0,
 -8.531408,-0.217676,1.059356\Bq,0,-8.432291,-0.231743,1.045908\Bq,0,-8
 .333173,-0.245809,1.032461\Bq,0,-8.234055,-0.259876,1.019013\Bq,0,-8.1
 34937,-0.273942,1.005565\Bq,0,-8.03582,-0.288009,0.992117\Bq,0,-7.9367
 02,-0.302075,0.978669\Bq,0,-7.837584,-0.316142,0.965221\Bq,0,-7.738466
 ,-0.330208,0.951773\Bq,0,-7.639349,-0.344275,0.938325\Bq,0,-7.540231,-
 0.358342,0.924877\Bq,0,-7.441113,-0.372408,0.911429\Bq,0,-7.341995,-0.
 386475,0.897981\Bq,0,-7.242878,-0.400541,0.884533\Bq,0,-7.14376,-0.414
 608,0.871085\Bq,0,-7.044642,-0.428674,0.857637\Bq,0,-6.945524,-0.44274
 1,0.844189\Bq,0,-6.846407,-0.456807,0.830741\Bq,0,-6.747289,-0.470874,
 0.817293\Bq,0,-6.648171,-0.48494,0.803845\Bq,0,-6.549054,-0.499007,0.7
 90397\Bq,0,-6.449936,-0.513073,0.776949\Bq,0,-6.350818,-0.52714,0.7635
 02\Bq,0,-6.2517,-0.541206,0.750054\Bq,0,-6.152583,-0.555273,0.736606\B
 q,0,-6.053465,-0.569339,0.723158\Bq,0,-5.954347,-0.583406,0.70971\Bq,0
 ,-5.855229,-0.597473,0.696262\Bq,0,-5.756112,-0.611539,0.682814\Bq,0,-
 5.656994,-0.625606,0.669366\Bq,0,-5.557876,-0.639672,0.655918\Bq,0,-5.
 458758,-0.653739,0.64247\Bq,0,-5.359641,-0.667805,0.629022\Bq,0,-5.260
 523,-0.681872,0.615574\Bq,0,-5.161405,-0.695938,0.602126\Bq,0,-5.06228
 7,-0.710005,0.588678\Bq,0,-4.96317,-0.724071,0.57523\Bq,0,-4.864052,-0
 .738138,0.561782\Bq,0,-4.764934,-0.752204,0.548334\Bq,0,-4.665817,-0.7
 66271,0.534886\Bq,0,-4.566699,-0.780337,0.521438\Bq,0,-4.467581,-0.794
 404,0.507991\Bq,0,-4.368463,-0.80847,0.494543\Bq,0,-4.269346,-0.822537
 ,0.481095\Bq,0,-4.170228,-0.836604,0.467647\Bq,0,-4.07111,-0.85067,0.4
 54199\Bq,0,-3.971992,-0.864737,0.440751\Bq,0,-3.872875,-0.878803,0.427
 303\Bq,0,-3.773757,-0.89287,0.413855\Bq,0,-3.674639,-0.906936,0.400407
 \Bq,0,-3.575521,-0.921003,0.386959\Bq,0,-3.476404,-0.935069,0.373511\B
 q,0,-3.377286,-0.949136,0.360063\Bq,0,-3.278168,-0.963202,0.346615\Bq,
 0,-3.17905,-0.977269,0.333167\Bq,0,-3.079933,-0.991335,0.319719\Bq,0,-
 2.980815,-1.005402,0.306271\Bq,0,-2.881697,-1.019468,0.292823\Bq,0,-2.
 78258,-1.033535,0.279375\Bq,0,-2.683462,-1.047602,0.265927\Bq,0,-2.584
 344,-1.061668,0.252479\Bq,0,-2.485226,-1.075735,0.239032\Bq,0,-2.38610
 9,-1.089801,0.225584\Bq,0,-2.286991,-1.103868,0.212136\Bq,0,-2.187873,
 -1.117934,0.198688\Bq,0,-2.088755,-1.132001,0.18524\Bq,0,-1.989638,-1.
 146067,0.171792\Bq,0,-1.89052,-1.160134,0.158344\Bq,0,-1.791402,-1.174
 2,0.144896\Bq,0,-1.692284,-1.188267,0.131448\Bq,0,-1.593167,-1.202333,
 0.118\\Version=ES64L-G16RevC.02\HF=-1843.6670122\RMSD=3.756e-09\Dipole
 =0.,0.,0.\Quadrupole=-21.0522219,10.7349283,10.3172936,0.,0.,0.\PG=C01
  [X(C48H24)]\\@


 We find comfort among those who agree with us -- growth among those who don't.
 -- Frank A. Clark
 Job cpu time:       0 days  6 hours 36 minutes 22.8 seconds.
 Elapsed time:       0 days  0 hours  4 minutes 37.7 seconds.
 File lengths (MBytes):  RWF=    521 Int=      0 D2E=      0 Chk=     71 Scr=      1
 Normal termination of Gaussian 16 at Sun Aug  6 07:14:11 2023.
