
                                        *****************
                                        * O   R   C   A *
                                        *****************

                                            #,                                       
                                            ###                                      
                                            ####                                     
                                            #####                                    
                                            ######                                   
                                           ########,                                 
                                     ,,################,,,,,                         
                               ,,#################################,,                 
                          ,,##########################################,,             
                       ,#########################################, ''#####,          
                    ,#############################################,,   '####,        
                  ,##################################################,,,,####,       
                ,###########''''           ''''###############################       
              ,#####''   ,,,,##########,,,,          '''####'''          '####       
            ,##' ,,,,###########################,,,                        '##       
           ' ,,###''''                  '''############,,,                           
         ,,##''                                '''############,,,,        ,,,,,,###''
      ,#''                                            '''#######################'''  
     '                                                          ''''####''''         
             ,#######,   #######,   ,#######,      ##                                
            ,#'     '#,  ##    ##  ,#'     '#,    #''#        ######   ,####,        
            ##       ##  ##   ,#'  ##            #'  '#       #        #'  '#        
            ##       ##  #######   ##           ,######,      #####,   #    #        
            '#,     ,#'  ##    ##  '#,     ,#' ,#      #,         ##   #,  ,#        
             '#######'   ##     ##  '#######'  #'      '#     #####' # '####'        



                  #######################################################
                  #                        -***-                        #
                  #          Department of theory and spectroscopy      #
                  #    Directorship and core code : Frank Neese         #
                  #        Max Planck Institute fuer Kohlenforschung    #
                  #                Kaiser Wilhelm Platz 1               #
                  #                 D-45470 Muelheim/Ruhr               #
                  #                      Germany                        #
                  #                                                     #
                  #                  All rights reserved                #
                  #                        -***-                        #
                  #######################################################


                         Program Version 5.0.0 -  RELEASE  -


 With contributions from (in alphabetic order):
   Daniel Aravena         : Magnetic Suceptibility
   Michael Atanasov       : Ab Initio Ligand Field Theory (pilot matlab implementation)
   Alexander A. Auer      : GIAO ZORA, VPT2 properties, NMR spectrum
   Ute Becker             : Parallelization
   Giovanni Bistoni       : ED, misc. LED, open-shell LED, HFLD
   Martin Brehm           : Molecular dynamics
   Dmytro Bykov           : SCF Hessian
   Vijay G. Chilkuri      : MRCI spin determinant printing, contributions to CSF-ICE
   Dipayan Datta          : RHF DLPNO-CCSD density
   Achintya Kumar Dutta   : EOM-CC, STEOM-CC
   Dmitry Ganyushin       : Spin-Orbit,Spin-Spin,Magnetic field MRCI
   Miquel Garcia          : C-PCM Hessian, Gaussian charge scheme
   Yang Guo               : DLPNO-NEVPT2, F12-NEVPT2, CIM, IAO-localization
   Andreas Hansen         : Spin unrestricted coupled pair/coupled cluster methods
   Benjamin Helmich-Paris : MC-RPA, TRAH-SCF, COSX integrals
   Lee Huntington         : MR-EOM, pCC
   Robert Izsak           : Overlap fitted RIJCOSX, COSX-SCS-MP3, EOM
   Marcus Kettner         : VPT2
   Christian Kollmar      : KDIIS, OOCD, Brueckner-CCSD(T), CCSD density, CASPT2, CASPT2-K
   Simone Kossmann        : Meta GGA functionals, TD-DFT gradient, OOMP2, MP2 Hessian
   Martin Krupicka        : Initial AUTO-CI
   Lucas Lang             : DCDCAS
   Marvin Lechner         : AUTO-CI (C++ implementation), FIC-MRCC
   Dagmar Lenk            : GEPOL surface, SMD
   Dimitrios Liakos       : Extrapolation schemes; Compound Job, initial MDCI parallelization
   Dimitrios Manganas     : Further ROCIS development; embedding schemes
   Dimitrios Pantazis     : SARC Basis sets
   Anastasios Papadopoulos: AUTO-CI, single reference methods and gradients
   Taras Petrenko         : DFT Hessian,TD-DFT gradient, ASA, ECA, R-Raman, ABS, FL, XAS/XES, NRVS
   Peter Pinski           : DLPNO-MP2, DLPNO-MP2 Gradient
   Christoph Reimann      : Effective Core Potentials
   Marius Retegan         : Local ZFS, SOC
   Christoph Riplinger    : Optimizer, TS searches, QM/MM, DLPNO-CCSD(T), (RO)-DLPNO pert. Triples
   Tobias Risthaus        : Range-separated hybrids, TD-DFT gradient, RPA, STAB
   Michael Roemelt        : Original ROCIS implementation
   Masaaki Saitow         : Open-shell DLPNO-CCSD energy and density
   Barbara Sandhoefer     : DKH picture change effects
   Avijit Sen             : IP-ROCIS
   Kantharuban Sivalingam : CASSCF convergence, NEVPT2, FIC-MRCI
   Bernardo de Souza      : ESD, SOC TD-DFT
   Georgi Stoychev        : AutoAux, RI-MP2 NMR
   Willem Van den Heuvel  : Paramagnetic NMR
   Boris Wezisla          : Elementary symmetry handling
   Frank Wennmohs         : Technical directorship


 We gratefully acknowledge several colleagues who have allowed us to
 interface, adapt or use parts of their codes:
   Stefan Grimme, W. Hujo, H. Kruse, P. Pracht,  : VdW corrections, initial TS optimization,
                  C. Bannwarth, S. Ehlert          DFT functionals, gCP, sTDA/sTD-DF
   Ed Valeev, F. Pavosevic, A. Kumar             : LibInt (2-el integral package), F12 methods
   Garnet Chan, S. Sharma, J. Yang, R. Olivares  : DMRG
   Ulf Ekstrom                                   : XCFun DFT Library
   Mihaly Kallay                                 : mrcc  (arbitrary order and MRCC methods)
   Jiri Pittner, Ondrej Demel                    : Mk-CCSD
   Frank Weinhold                                : gennbo (NPA and NBO analysis)
   Christopher J. Cramer and Donald G. Truhlar   : smd solvation model
   Lars Goerigk                                  : TD-DFT with DH, B97 family of functionals
   V. Asgeirsson, H. Jonsson                     : NEB implementation
   FAccTs GmbH                                   : IRC, NEB, NEB-TS, DLPNO-Multilevel, CI-OPT
                                                   MM, QMMM, 2- and 3-layer-ONIOM, Crystal-QMMM,
                                                   LR-CPCM, SF, NACMEs, symmetry and pop. for TD-DFT,
                                                   nearIR, NL-DFT gradient (VV10), updates on ESD,
                                                   ML-optimized integration grids
   S Lehtola, MJT Oliveira, MAL Marques          : LibXC Library
   Liviu Ungur et al                             : ANISO software


 Your calculation uses the libint2 library for the computation of 2-el integrals
 For citations please refer to: http://libint.valeyev.net

 Your ORCA version has been built with support for libXC version: 5.1.0
 For citations please refer to: https://tddft.org/programs/libxc/

 This ORCA versions uses:
   CBLAS   interface :  Fast vector & matrix operations
   LAPACKE interface :  Fast linear algebra routines
   Shared memory     :  Shared parallel matrices


Your calculation utilizes the DFT-NL dispersion correction.
Cite in your paper:
Vydrov, O. A.; Van Voorhis, T. J. Chem. Phys. 2010, 133, 244103
Hujo, W.; Grimme, S. J. Chem. Theory Comput. 2011, 7, 3866 
   

================================================================================

----- Orbital basis set information -----
Your calculation utilizes the basis: def2-TZVP
   F. Weigend and R. Ahlrichs, Phys. Chem. Chem. Phys. 7, 3297 (2005).

----- AuxJ basis set information -----
Your calculation utilizes the auxiliary basis: def2/J
   F. Weigend, Phys. Chem. Chem. Phys. 8, 1057 (2006).

================================================================================
                                        WARNINGS
                       Please study these warnings very carefully!
================================================================================


INFO   : the flag for use of the SHARK integral package has been found!

================================================================================
                                       INPUT FILE
================================================================================
NAME = A.inp
|  1> ! wB97M-V def2-TZVP def2/J RIJCOSX strongSCF noautostart miniprint nopop
|  2> %maxcore  1000
|  3> %pal nprocs   8 end
|  4> * xyz   0   1
|  5> N      0.93501550   -0.02798010   -0.37889160
|  6> C      1.67396380   -0.03577660    0.74243160
|  7> C      3.07479550   -0.00944800    0.59945620
|  8> C      3.56461090    0.01954460   -0.70598720
|  9> N      2.85315100    0.02580310   -1.84095960
| 10> C      1.54907600    0.00125690   -1.58080090
| 11> N      4.08858240   -0.00544290    1.52897860
| 12> C      5.18299210    0.02539710    0.78721760
| 13> N      4.92948710    0.04124040   -0.55672740
| 14> N      1.07161770   -0.07653660    1.93913900
| 15> H      0.87944350    0.00502600   -2.43157090
| 16> H      6.18825910    0.03755420    1.17388240
| 17> H      5.60353680    0.06487550   -1.30368110
| 18> H      0.05869150   -0.04237650    2.00391810
| 19> H      1.64437960   -0.03473950    2.76191590
| 20>  *
| 21> 
| 22>                          ****END OF INPUT****
================================================================================

                       ****************************
                       * Single Point Calculation *
                       ****************************

---------------------------------
CARTESIAN COORDINATES (ANGSTROEM)
---------------------------------
  N      0.935015   -0.027980   -0.378892
  C      1.673964   -0.035777    0.742432
  C      3.074796   -0.009448    0.599456
  C      3.564611    0.019545   -0.705987
  N      2.853151    0.025803   -1.840960
  C      1.549076    0.001257   -1.580801
  N      4.088582   -0.005443    1.528979
  C      5.182992    0.025397    0.787218
  N      4.929487    0.041240   -0.556727
  N      1.071618   -0.076537    1.939139
  H      0.879444    0.005026   -2.431571
  H      6.188259    0.037554    1.173882
  H      5.603537    0.064876   -1.303681
  H      0.058692   -0.042376    2.003918
  H      1.644380   -0.034739    2.761916

----------------------------
CARTESIAN COORDINATES (A.U.)
----------------------------
  NO LB      ZA    FRAG     MASS         X           Y           Z
   0 N     7.0000    0    14.007    1.766923   -0.052875   -0.716001
   1 C     6.0000    0    12.011    3.163333   -0.067608    1.402992
   2 C     6.0000    0    12.011    5.810521   -0.017854    1.132808
   3 C     6.0000    0    12.011    6.736138    0.036934   -1.334122
   4 N     7.0000    0    14.007    5.391674    0.048761   -3.478909
   5 C     6.0000    0    12.011    2.927329    0.002375   -2.987281
   6 N     7.0000    0    14.007    7.726301   -0.010286    2.889351
   7 C     6.0000    0    12.011    9.794436    0.047994    1.487626
   8 N     7.0000    0    14.007    9.315381    0.077933   -1.052062
   9 N     7.0000    0    14.007    2.025064   -0.144633    3.664442
  10 H     1.0000    0     1.008    1.661907    0.009498   -4.595003
  11 H     1.0000    0     1.008   11.694115    0.070967    2.218316
  12 H     1.0000    0     1.008   10.589150    0.122597   -2.463600
  13 H     1.0000    0     1.008    0.110911   -0.080080    3.786856
  14 H     1.0000    0     1.008    3.107427   -0.065648    5.219265



           ************************************************************
           *        Program running with 8 parallel MPI-processes     *
           *              working on a common directory               *
           ************************************************************
------------------------------------------------------------------------------
                   ___                                                        
                  /   \      - P O W E R E D   B Y -                         
                 /     \                                                     
                 |  |  |   _    _      __       _____    __    __             
                 |  |  |  | |  | |    /  \     |  _  \  |  |  /  |          
                  \  \/   | |  | |   /    \    | | | |  |  | /  /          
                 / \  \   | |__| |  /  /\  \   | |_| |  |  |/  /          
                |  |  |   |  __  | /  /__\  \  |    /   |      \           
                |  |  |   | |  | | |   __   |  |    \   |  |\   \          
                \     /   | |  | | |  |  |  |  | |\  \  |  | \   \       
                 \___/    |_|  |_| |__|  |__|  |_| \__\ |__|  \__/        
                                                                              
                      - O R C A' S   B I G   F R I E N D -                    
                                      &                                       
                       - I N T E G R A L  F E E D E R -                       
                                                                              
 v1 FN, 2020, v2 2021                                                         
------------------------------------------------------------------------------


Reading SHARK input file A.SHARKINP.tmp ... ok
----------------------
SHARK INTEGRAL PACKAGE
----------------------

Number of atoms                             ...     15
Number of basis functions                   ...    340
Number of shells                            ...    130
Maximum angular momentum                    ...      3
Integral batch strategy                     ... SHARK/LIBINT Hybrid
RI-J (if used) integral strategy            ... SPLIT-RIJ (Revised 2003 algorithm where possible)
Printlevel                                  ...      1
Contraction scheme used                     ... SEGMENTED contraction
Coulomb Range Separation                    ... NOT USED
Exchange Range Separation                   ... Long Range
   Mu parameter                             ...  0.300000
   Scaling (regular/separated)              ...  0.150000  0.850000
Finite Nucleus Model                        ... NOT USED
Auxiliary Coulomb fitting basis             ... AVAILABLE
   # of basis functions in Aux-J            ...    545
   # of shells in Aux-J                     ...    175
   Maximum angular momentum in Aux-J        ...      4
Auxiliary J/K fitting basis                 ... NOT available
Auxiliary Correlation fitting basis         ... NOT available
Auxiliary 'external' fitting basis          ... NOT available
Integral threshold                          ...     1.000000e-10
Primitive cut-off                           ...     3.000000e-11
Primitive pair pre-selection threshold      ...     3.000000e-11

Calculating pre-screening integrals         ... done (  0.1 sec) Dimension = 130
Organizing shell pair data                  ... done (  0.1 sec)
Shell pair information
Total number of shell pairs                 ...      8515
Shell pairs after pre-screening             ...      7602
Total number of primitive shell pairs       ...     26800
Primitive shell pairs kept                  ...     17487
          la=0 lb=0:   1791 shell pairs
          la=1 lb=0:   2061 shell pairs
          la=1 lb=1:    592 shell pairs
          la=2 lb=0:   1163 shell pairs
          la=2 lb=1:    659 shell pairs
          la=2 lb=2:    200 shell pairs
          la=3 lb=0:    567 shell pairs
          la=3 lb=1:    326 shell pairs
          la=3 lb=2:    190 shell pairs
          la=3 lb=3:     53 shell pairs

Calculating one electron integrals          ... done (  0.0 sec)
Calculating RI/J V-Matrix + Cholesky decomp.... done (  0.0 sec)
Calculating Nuclear repulsion               ... done (  0.0 sec) ENN=    503.396306509793 Eh

SHARK setup successfully completed in   0.3 seconds

Maximum memory used throughout the entire GTOINT-calculation: 14.0 MB


           ************************************************************
           *        Program running with 8 parallel MPI-processes     *
           *              working on a common directory               *
           ************************************************************

Diagonalization of the overlap matrix:
Smallest eigenvalue                        ... 3.992e-05
Time for diagonalization                   ...    0.015 sec
Threshold for overlap eigenvalues          ... 1.000e-08
Number of eigenvalues below threshold      ... 0
Time for construction of square roots      ...    0.014 sec
Total time needed                          ...    0.030 sec

Time for model grid setup =    0.095 sec

Loading Hartree-Fock densities                     ... done
Calculating cut-offs                               ... done
Initializing the effective Hamiltonian             ... done
Setting up the integral package (SHARK)            ... done
Starting the Coulomb interaction                   ... done (   0.1 sec)
Reading the grid                                   ... done
Mapping shells                                     ... done
Starting the XC term evaluation                    ... done (   0.1 sec)
  promolecular density results
     # of electrons  =     69.995510571
     EX              =    -59.809318078
     EC              =     -2.376271358
     EX+EC           =    -62.185589436
Transforming the Hamiltonian                       ... done (   0.0 sec)
Diagonalizing the Hamiltonian                      ... done (   0.0 sec)
Back transforming the eigenvectors                 ... done (   0.0 sec)
Now organizing SCF variables                       ... done
-------------------
DFT GRID GENERATION
-------------------

General Integration Accuracy     IntAcc      ... 4.388
Radial Grid Type                 RadialGrid  ... OptM3 with GC (2021)
Angular Grid (max. ang.)         AngularGrid ... 4 (Lebedev-302)
Angular grid pruning method      GridPruning ... 4 (adaptive)
Weight generation scheme         WeightScheme... Becke
Basis function cutoff            BFCut       ... 3.0000e-11
Integration weight cutoff        WCut        ... 1.0000e-14
Angular grids for H and He will be reduced by one unit
Partially contracted basis set               ... off
Rotationally invariant grid construction     ... off

Total number of grid points                  ...    76337
Total number of batches                      ...     1200
Average number of points per batch           ...       63
Average number of grid points per atom       ...     5089
Time for grid setup =    0.410 sec

--------------------
COSX GRID GENERATION
--------------------

GRIDX 1
-------
General Integration Accuracy     IntAcc      ... 3.816
Radial Grid Type                 RadialGrid  ... OptM3 with GC (2021)
Angular Grid (max. ang.)         AngularGrid ... 1 (Lebedev-50)
Angular grid pruning method      GridPruning ... 4 (adaptive)
Weight generation scheme         WeightScheme... Becke
Basis function cutoff            BFCut       ... 3.0000e-11
Integration weight cutoff        WCut        ... 1.0000e-14
Angular grids for H and He will be reduced by one unit
Partially contracted basis set               ... on
Rotationally invariant grid construction     ... off

Total number of grid points                  ...     9717
Total number of batches                      ...      159
Average number of points per batch           ...       61
Average number of grid points per atom       ...      648
UseSFitting                                  ... on

GRIDX 2
-------
General Integration Accuracy     IntAcc      ... 4.020
Radial Grid Type                 RadialGrid  ... OptM3 with GC (2021)
Angular Grid (max. ang.)         AngularGrid ... 2 (Lebedev-110)
Angular grid pruning method      GridPruning ... 4 (adaptive)
Weight generation scheme         WeightScheme... Becke
Basis function cutoff            BFCut       ... 3.0000e-11
Integration weight cutoff        WCut        ... 1.0000e-14
Angular grids for H and He will be reduced by one unit
Partially contracted basis set               ... on
Rotationally invariant grid construction     ... off

Total number of grid points                  ...    21828
Total number of batches                      ...      347
Average number of points per batch           ...       62
Average number of grid points per atom       ...     1455
UseSFitting                                  ... on

GRIDX 3
-------
General Integration Accuracy     IntAcc      ... 4.338
Radial Grid Type                 RadialGrid  ... OptM3 with GC (2021)
Angular Grid (max. ang.)         AngularGrid ... 3 (Lebedev-194)
Angular grid pruning method      GridPruning ... 4 (adaptive)
Weight generation scheme         WeightScheme... Becke
Basis function cutoff            BFCut       ... 3.0000e-11
Integration weight cutoff        WCut        ... 1.0000e-14
Angular grids for H and He will be reduced by one unit
Partially contracted basis set               ... on
Rotationally invariant grid construction     ... off

Total number of grid points                  ...    48163
Total number of batches                      ...      761
Average number of points per batch           ...       63
Average number of grid points per atom       ...     3211
UseSFitting                                  ... on

Time for X-Grid setup             =    0.429 sec

--------------
SCF ITERATIONS
--------------
ITER       Energy         Delta-E        Max-DP      RMS-DP      [F,P]     Damp
               ***  Starting incremental Fock matrix formation  ***
  0   -467.3605843872   0.000000000000 0.04603055  0.00097219  0.2212680 0.7000
  1   -467.4704223564  -0.109837969174 0.06036573  0.00093292  0.1247348 0.7000
                               ***Turning on DIIS***
  2   -467.5250377018  -0.054615345437 0.13313029  0.00200062  0.0598015 0.0000
  3   -467.6143234685  -0.089285766714 0.03836026  0.00056857  0.0501946 0.0000
  4   -467.6278434743  -0.013520005774 0.01118211  0.00017433  0.0055672 0.0000
  5   -467.6281817949  -0.000338320608 0.00415268  0.00006481  0.0033439 0.0000
                      *** Initiating the SOSCF procedure ***
                           *** Shutting down DIIS ***
                      *** Re-Reading the Fockian *** 
                      *** Removing any level shift *** 
ITER      Energy       Delta-E        Grad      Rot      Max-DP    RMS-DP
  6   -467.62823993  -0.0000581343  0.000957  0.000957  0.002222  0.000037
               *** Restarting incremental Fock matrix formation ***
  7   -467.62825768  -0.0000177483  0.000458  0.001114  0.001225  0.000027
  8   -467.62826280  -0.0000051259  0.000283  0.001155  0.001383  0.000026
  9   -467.62826422  -0.0000014157  0.000167  0.000345  0.000676  0.000011
 10   -467.62826468  -0.0000004597  0.000033  0.000069  0.000277  0.000003
 11   -467.62826471  -0.0000000346  0.000019  0.000041  0.000065  0.000001
 12   -467.62826472  -0.0000000022  0.000006  0.000021  0.000112  0.000002
                 **** Energy Check signals convergence ****
              ***Rediagonalizing the Fockian in SOSCF/NRSCF***

               *****************************************************
               *                     SUCCESS                       *
               *           SCF CONVERGED AFTER  13 CYCLES          *
               *****************************************************

Old exchange energy                            =    -18.475992629 Eh
New exchange energy                            =    -18.475988715 Eh
Exchange energy change after final integration =      0.000003914 Eh
Total energy after final integration           =   -467.628260786 Eh
Final COS-X integration done in                =     8.097 sec

------------------
NL GRID GENERATION
------------------

General Integration Accuracy     IntAcc      ... 4.004
Radial Grid Type                 RadialGrid  ... OptM3 with GC (2021)
Angular Grid (max. ang.)         AngularGrid ... 2 (Lebedev-110)
Angular grid pruning method      GridPruning ... 4 (adaptive)
Weight generation scheme         WeightScheme... Becke
Basis function cutoff            BFCut       ... 1.0000e-10
Integration weight cutoff        WCut        ... 1.0000e-14
Angular grids for H and He will be reduced by one unit
Partially contracted basis set               ... off
Rotationally invariant grid construction     ... off

Total number of grid points                  ...    25252
Total number of batches                      ...      402
Average number of points per batch           ...       62
Average number of grid points per atom       ...     1683
Final grid set up in    0.1 sec

-------------------------------------------------------------------------------
                    post-SCF DFT-NL dispersion correction                      
-------------------------------------------------------------------------------

SCF Energy:   -467.628260786 
NL    Energy:  0.265877219 
SC+NL Energy: -467.362383567 
NL done in:    0.6 sec
-------------------------------------------------------------------------------
Total Energy       :         -467.36238357 Eh          -12717.57701 eV
  Last Energy change         ...    1.5121e-08  Tolerance :   3.0000e-07
  Last MAX-Density change    ...    1.5543e-15  Tolerance :   3.0000e-06
             **** THE GBW FILE WAS UPDATED (A.gbw) ****
             **** DENSITY A.scfp WAS UPDATED ****
             **** ENERGY FILE WAS UPDATED (A.en.tmp) ****
             **** THE GBW FILE WAS UPDATED (A.gbw) ****
             **** DENSITY A.scfp WAS UPDATED ****
----------------
ORBITAL ENERGIES
----------------

  NO   OCC          E(Eh)            E(eV) 
   0   2.0000     -14.573918      -396.5765 
   1   2.0000     -14.529360      -395.3640 
   2   2.0000     -14.509574      -394.8256 
   3   2.0000     -14.500724      -394.5848 
   4   2.0000     -14.492579      -394.3631 
   5   2.0000     -10.439096      -284.0622 
   6   2.0000     -10.426456      -283.7183 
   7   2.0000     -10.420492      -283.5560 
   8   2.0000     -10.409698      -283.2623 
   9   2.0000     -10.371599      -282.2255 
  10   2.0000      -1.169688       -31.8288 
  11   2.0000      -1.108478       -30.1632 
  12   2.0000      -1.067733       -29.0545 
  13   2.0000      -1.017464       -27.6866 
  14   2.0000      -0.983488       -26.7621 
  15   2.0000      -0.889770       -24.2119 
  16   2.0000      -0.787295       -21.4234 
  17   2.0000      -0.770004       -20.9529 
  18   2.0000      -0.749392       -20.3920 
  19   2.0000      -0.698121       -18.9968 
  20   2.0000      -0.666046       -18.1240 
  21   2.0000      -0.626642       -17.0518 
  22   2.0000      -0.607771       -16.5383 
  23   2.0000      -0.588820       -16.0226 
  24   2.0000      -0.568501       -15.4697 
  25   2.0000      -0.547149       -14.8887 
  26   2.0000      -0.526264       -14.3204 
  27   2.0000      -0.519516       -14.1368 
  28   2.0000      -0.470115       -12.7925 
  29   2.0000      -0.431458       -11.7406 
  30   2.0000      -0.400285       -10.8923 
  31   2.0000      -0.392280       -10.6745 
  32   2.0000      -0.361479        -9.8363 
  33   2.0000      -0.356269        -9.6946 
  34   2.0000      -0.310899        -8.4600 
  35   0.0000       0.049824         1.3558 
  36   0.0000       0.082243         2.2379 
  37   0.0000       0.085887         2.3371 
  38   0.0000       0.099757         2.7145 
  39   0.0000       0.117583         3.1996 
  40   0.0000       0.134616         3.6631 
  41   0.0000       0.143188         3.8963 
  42   0.0000       0.147679         4.0186 
  43   0.0000       0.162842         4.4312 
  44   0.0000       0.202292         5.5046 
  45   0.0000       0.210826         5.7369 
  46   0.0000       0.227446         6.1891 
  47   0.0000       0.245624         6.6838 
  48   0.0000       0.247457         6.7336 
  49   0.0000       0.265935         7.2365 
  50   0.0000       0.277649         7.5552 
  51   0.0000       0.286703         7.8016 
  52   0.0000       0.302564         8.2332 
  53   0.0000       0.312885         8.5140 
  54   0.0000       0.320984         8.7344 
  55   0.0000       0.336256         9.1500 
  56   0.0000       0.346053         9.4166 
  57   0.0000       0.363260         9.8848 
  58   0.0000       0.364181         9.9099 
  59   0.0000       0.378925        10.3111 
  60   0.0000       0.386999        10.5308 
  61   0.0000       0.398433        10.8419 
  62   0.0000       0.415112        11.2958 
  63   0.0000       0.425914        11.5897 
  64   0.0000       0.432967        11.7816 
  65   0.0000       0.444744        12.1021 
  66   0.0000       0.455643        12.3987 
  67   0.0000       0.471286        12.8243 
  68   0.0000       0.477592        12.9959 
  69   0.0000       0.483713        13.1625 
  70   0.0000       0.491004        13.3609 
  71   0.0000       0.504570        13.7300 
  72   0.0000       0.511659        13.9230 
  73   0.0000       0.517430        14.0800 
  74   0.0000       0.542516        14.7626 
  75   0.0000       0.545601        14.8466 
  76   0.0000       0.550744        14.9865 
  77   0.0000       0.564988        15.3741 
  78   0.0000       0.565996        15.4015 
  79   0.0000       0.585047        15.9199 
  80   0.0000       0.599770        16.3206 
  81   0.0000       0.607934        16.5427 
  82   0.0000       0.614690        16.7266 
  83   0.0000       0.631092        17.1729 
  84   0.0000       0.652202        17.7473 
  85   0.0000       0.662402        18.0249 
  86   0.0000       0.672991        18.3130 
  87   0.0000       0.677279        18.4297 
  88   0.0000       0.697301        18.9745 
  89   0.0000       0.700530        19.0624 
  90   0.0000       0.702726        19.1222 
  91   0.0000       0.722244        19.6533 
  92   0.0000       0.738731        20.1019 
  93   0.0000       0.753173        20.4949 
  94   0.0000       0.782433        21.2911 
  95   0.0000       0.793568        21.5941 
  96   0.0000       0.804877        21.9018 
  97   0.0000       0.815332        22.1863 
  98   0.0000       0.829718        22.5778 
  99   0.0000       0.832329        22.6488 
 100   0.0000       0.845442        23.0057 
 101   0.0000       0.857724        23.3399 
 102   0.0000       0.878230        23.8979 
 103   0.0000       0.921908        25.0864 
 104   0.0000       0.942772        25.6541 
 105   0.0000       0.959940        26.1213 
 106   0.0000       0.989625        26.9291 
 107   0.0000       0.992564        27.0090 
 108   0.0000       1.040633        28.3171 
 109   0.0000       1.057257        28.7694 
 110   0.0000       1.064367        28.9629 
 111   0.0000       1.107183        30.1280 
 112   0.0000       1.157942        31.5092 
 113   0.0000       1.192455        32.4484 
 114   0.0000       1.214661        33.0526 
 115   0.0000       1.231265        33.5044 
 116   0.0000       1.241470        33.7821 
 117   0.0000       1.243988        33.8506 
 118   0.0000       1.270456        34.5709 
 119   0.0000       1.311026        35.6748 
 120   0.0000       1.338806        36.4308 
 121   0.0000       1.349208        36.7138 
 122   0.0000       1.358636        36.9704 
 123   0.0000       1.380785        37.5731 
 124   0.0000       1.380877        37.5756 
 125   0.0000       1.440857        39.2077 
 126   0.0000       1.446245        39.3543 
 127   0.0000       1.471535        40.0425 
 128   0.0000       1.494086        40.6562 
 129   0.0000       1.510488        41.1025 
 130   0.0000       1.512476        41.1566 
 131   0.0000       1.539644        41.8958 
 132   0.0000       1.549305        42.1587 
 133   0.0000       1.561904        42.5016 
 134   0.0000       1.565072        42.5878 
 135   0.0000       1.571086        42.7514 
 136   0.0000       1.595025        43.4028 
 137   0.0000       1.605732        43.6942 
 138   0.0000       1.615262        43.9535 
 139   0.0000       1.646477        44.8029 
 140   0.0000       1.651881        44.9500 
 141   0.0000       1.657341        45.0985 
 142   0.0000       1.667277        45.3689 
 143   0.0000       1.696282        46.1582 
 144   0.0000       1.701898        46.3110 
 145   0.0000       1.721355        46.8405 
 146   0.0000       1.732344        47.1395 
 147   0.0000       1.735541        47.2265 
 148   0.0000       1.740917        47.3728 
 149   0.0000       1.778004        48.3820 
 150   0.0000       1.794880        48.8412 
 151   0.0000       1.810009        49.2528 
 152   0.0000       1.826971        49.7144 
 153   0.0000       1.875461        51.0339 
 154   0.0000       1.884396        51.2770 
 155   0.0000       1.900237        51.7081 
 156   0.0000       1.919593        52.2348 
 157   0.0000       1.936400        52.6921 
 158   0.0000       1.967428        53.5364 
 159   0.0000       1.979752        53.8718 
 160   0.0000       2.002119        54.4804 
 161   0.0000       2.006311        54.5945 
 162   0.0000       2.046218        55.6804 
 163   0.0000       2.062622        56.1268 
 164   0.0000       2.069417        56.3117 
 165   0.0000       2.132947        58.0404 
 166   0.0000       2.137785        58.1721 
 167   0.0000       2.170059        59.0503 
 168   0.0000       2.186939        59.5096 
 169   0.0000       2.206550        60.0433 
 170   0.0000       2.222653        60.4815 
 171   0.0000       2.230622        60.6983 
 172   0.0000       2.253296        61.3153 
 173   0.0000       2.301424        62.6249 
 174   0.0000       2.316626        63.0386 
 175   0.0000       2.353613        64.0451 
 176   0.0000       2.355202        64.0883 
 177   0.0000       2.379931        64.7612 
 178   0.0000       2.404513        65.4301 
 179   0.0000       2.434988        66.2594 
 180   0.0000       2.439833        66.3912 
 181   0.0000       2.447404        66.5972 
 182   0.0000       2.476583        67.3912 
 183   0.0000       2.512624        68.3720 
 184   0.0000       2.553134        69.4743 
 185   0.0000       2.565919        69.8222 
 186   0.0000       2.577391        70.1344 
 187   0.0000       2.610768        71.0426 
 188   0.0000       2.633501        71.6612 
 189   0.0000       2.675394        72.8012 
 190   0.0000       2.693532        73.2947 
 191   0.0000       2.712669        73.8155 
 192   0.0000       2.772944        75.4556 
 193   0.0000       2.782392        75.7127 
 194   0.0000       2.796372        76.0932 
 195   0.0000       2.802667        76.2645 
 196   0.0000       2.822953        76.8165 
 197   0.0000       2.887740        78.5794 
 198   0.0000       2.922151        79.5158 
 199   0.0000       2.923888        79.5630 
 200   0.0000       2.936387        79.9032 
 201   0.0000       2.940145        80.0054 
 202   0.0000       2.958210        80.4970 
 203   0.0000       2.975767        80.9747 
 204   0.0000       2.978906        81.0601 
 205   0.0000       3.005797        81.7919 
 206   0.0000       3.013971        82.0143 
 207   0.0000       3.022522        82.2470 
 208   0.0000       3.054667        83.1217 
 209   0.0000       3.064660        83.3936 
 210   0.0000       3.075180        83.6799 
 211   0.0000       3.080148        83.8151 
 212   0.0000       3.091460        84.1229 
 213   0.0000       3.094274        84.1995 
 214   0.0000       3.130496        85.1851 
 215   0.0000       3.146014        85.6074 
 216   0.0000       3.147590        85.6503 
 217   0.0000       3.198307        87.0304 
 218   0.0000       3.213075        87.4322 
 219   0.0000       3.217814        87.5612 
 220   0.0000       3.250575        88.4526 
 221   0.0000       3.280861        89.2768 
 222   0.0000       3.283658        89.3529 
 223   0.0000       3.301914        89.8496 
 224   0.0000       3.314541        90.1932 
 225   0.0000       3.337075        90.8064 
 226   0.0000       3.342987        90.9673 
 227   0.0000       3.357697        91.3676 
 228   0.0000       3.370789        91.7238 
 229   0.0000       3.399960        92.5176 
 230   0.0000       3.427796        93.2751 
 231   0.0000       3.435757        93.4917 
 232   0.0000       3.460389        94.1620 
 233   0.0000       3.479261        94.6755 
 234   0.0000       3.505882        95.3999 
 235   0.0000       3.511329        95.5481 
 236   0.0000       3.521055        95.8128 
 237   0.0000       3.541708        96.3748 
 238   0.0000       3.566940        97.0614 
 239   0.0000       3.578853        97.3855 
 240   0.0000       3.617625        98.4406 
 241   0.0000       3.651381        99.3591 
 242   0.0000       3.659863        99.5899 
 243   0.0000       3.689380       100.3931 
 244   0.0000       3.716209       101.1232 
 245   0.0000       3.751141       102.0737 
 246   0.0000       3.765300       102.4590 
 247   0.0000       3.819511       103.9342 
 248   0.0000       3.846760       104.6757 
 249   0.0000       3.876602       105.4877 
 250   0.0000       3.881933       105.6328 
 251   0.0000       3.919021       106.6420 
 252   0.0000       3.942304       107.2755 
 253   0.0000       3.982237       108.3622 
 254   0.0000       3.992661       108.6458 
 255   0.0000       4.038519       109.8937 
 256   0.0000       4.079795       111.0169 
 257   0.0000       4.118063       112.0582 
 258   0.0000       4.132017       112.4379 
 259   0.0000       4.167578       113.4056 
 260   0.0000       4.202407       114.3533 
 261   0.0000       4.215239       114.7025 
 262   0.0000       4.252153       115.7070 
 263   0.0000       4.291623       116.7810 
 264   0.0000       4.343607       118.1955 
 265   0.0000       4.361164       118.6733 
 266   0.0000       4.414642       120.1285 
 267   0.0000       4.462165       121.4217 
 268   0.0000       4.470718       121.6544 
 269   0.0000       4.489430       122.1636 
 270   0.0000       4.542570       123.6096 
 271   0.0000       4.566983       124.2739 
 272   0.0000       4.590151       124.9044 
 273   0.0000       4.669206       127.0556 
 274   0.0000       4.685996       127.5124 
 275   0.0000       4.727025       128.6289 
 276   0.0000       4.742936       129.0618 
 277   0.0000       4.787638       130.2783 
 278   0.0000       4.827269       131.3567 
 279   0.0000       4.859986       132.2469 
 280   0.0000       4.876262       132.6898 
 281   0.0000       4.887698       133.0010 
 282   0.0000       4.913571       133.7051 
 283   0.0000       4.930023       134.1527 
 284   0.0000       4.947321       134.6234 
 285   0.0000       4.977623       135.4480 
 286   0.0000       5.026343       136.7738 
 287   0.0000       5.036010       137.0368 
 288   0.0000       5.055907       137.5782 
 289   0.0000       5.089027       138.4795 
 290   0.0000       5.114346       139.1684 
 291   0.0000       5.117273       139.2481 
 292   0.0000       5.133577       139.6917 
 293   0.0000       5.151615       140.1826 
 294   0.0000       5.161709       140.4572 
 295   0.0000       5.173971       140.7909 
 296   0.0000       5.188492       141.1860 
 297   0.0000       5.204059       141.6096 
 298   0.0000       5.217342       141.9711 
 299   0.0000       5.253015       142.9418 
 300   0.0000       5.258029       143.0783 
 301   0.0000       5.270985       143.4308 
 302   0.0000       5.287015       143.8670 
 303   0.0000       5.294732       144.0770 
 304   0.0000       5.336526       145.2143 
 305   0.0000       5.342842       145.3861 
 306   0.0000       5.386105       146.5634 
 307   0.0000       5.395423       146.8169 
 308   0.0000       5.432705       147.8314 
 309   0.0000       5.479313       149.0997 
 310   0.0000       5.506782       149.8472 
 311   0.0000       5.512402       150.0001 
 312   0.0000       5.540013       150.7514 
 313   0.0000       5.560913       151.3201 
 314   0.0000       5.571685       151.6133 
 315   0.0000       5.587072       152.0320 
 316   0.0000       5.596365       152.2848 
 317   0.0000       5.676430       154.4635 
 318   0.0000       5.689586       154.8215 
 319   0.0000       5.723877       155.7546 
 320   0.0000       5.738632       156.1561 
 321   0.0000       5.822322       158.4334 
 322   0.0000       5.865846       159.6178 
 323   0.0000       5.962063       162.2360 
 324   0.0000       6.013886       163.6462 
 325   0.0000       6.041009       164.3842 
 326   0.0000       6.146280       167.2488 
 327   0.0000       6.244602       169.9242 
 328   0.0000       6.367812       173.2770 
 329   0.0000       6.661523       181.2693 
 330   0.0000      23.029480       626.6640 
 331   0.0000      23.178369       630.7155 
 332   0.0000      23.408797       636.9857 
 333   0.0000      23.503132       639.5527 
 334   0.0000      23.735866       645.8857 
 335   0.0000      32.414903       882.0543 
 336   0.0000      32.671837       889.0459 
 337   0.0000      32.743827       891.0048 
 338   0.0000      32.799446       892.5183 
 339   0.0000      32.987489       897.6352 
Total SCF time: 0 days 0 hours 1 min 0 sec 

Maximum memory used throughout the entire SCF-calculation: 80.8 MB

-------------------------   --------------------
FINAL SINGLE POINT ENERGY      -467.362383567007
-------------------------   --------------------


                            ***************************************
                            *     ORCA property calculations      *
                            ***************************************

                                    ---------------------
                                    Active property flags
                                    ---------------------
   (+) Dipole Moment


------------------------------------------------------------------------------
                       ORCA ELECTRIC PROPERTIES CALCULATION
------------------------------------------------------------------------------

Dipole Moment Calculation                       ... on
Quadrupole Moment Calculation                   ... off
Polarizability Calculation                      ... off
GBWName                                         ... A.gbw
Electron density file                           ... A.scfp
The origin for moment calculation is the CENTER OF MASS  = ( 5.448184, -0.007815  0.140049)

-------------
DIPOLE MOMENT
-------------
                                X             Y             Z
Electronic contribution:      0.86754       0.01351      -1.25831
Nuclear contribution   :     -0.04139       0.04774       1.72230
                        -----------------------------------------
Total Dipole Moment    :      0.82615       0.06125       0.46399
                        -----------------------------------------
Magnitude (a.u.)       :      0.94951
Magnitude (Debye)      :      2.41345



--------------------
Rotational spectrum 
--------------------
 
Rotational constants in cm-1:     0.078870     0.052871     0.031653 
Rotational constants in MHz :  2364.457027  1585.047527   948.940177 

 Dipole components along the rotational axes: 
x,y,z [a.u.] :     0.825741    -0.465557     0.054514 
x,y,z [Debye]:     2.098866    -1.183352     0.138564 

 

Timings for individual modules:

Sum of individual times         ...       63.534 sec (=   1.059 min)
GTO integral calculation        ...        1.404 sec (=   0.023 min)   2.2 %
SCF iterations                  ...       62.130 sec (=   1.035 min)  97.8 %
                             ****ORCA TERMINATED NORMALLY****
TOTAL RUN TIME: 0 days 0 hours 1 minutes 4 seconds 325 msec
