
                                        *****************
                                        * O   R   C   A *
                                        *****************

                                            #,                                       
                                            ###                                      
                                            ####                                     
                                            #####                                    
                                            ######                                   
                                           ########,                                 
                                     ,,################,,,,,                         
                               ,,#################################,,                 
                          ,,##########################################,,             
                       ,#########################################, ''#####,          
                    ,#############################################,,   '####,        
                  ,##################################################,,,,####,       
                ,###########''''           ''''###############################       
              ,#####''   ,,,,##########,,,,          '''####'''          '####       
            ,##' ,,,,###########################,,,                        '##       
           ' ,,###''''                  '''############,,,                           
         ,,##''                                '''############,,,,        ,,,,,,###''
      ,#''                                            '''#######################'''  
     '                                                          ''''####''''         
             ,#######,   #######,   ,#######,      ##                                
            ,#'     '#,  ##    ##  ,#'     '#,    #''#        ######   ,####,        
            ##       ##  ##   ,#'  ##            #'  '#       #        #'  '#        
            ##       ##  #######   ##           ,######,      #####,   #    #        
            '#,     ,#'  ##    ##  '#,     ,#' ,#      #,         ##   #,  ,#        
             '#######'   ##     ##  '#######'  #'      '#     #####' # '####'        



                  #######################################################
                  #                        -***-                        #
                  #          Department of theory and spectroscopy      #
                  #    Directorship and core code : Frank Neese         #
                  #        Max Planck Institute fuer Kohlenforschung    #
                  #                Kaiser Wilhelm Platz 1               #
                  #                 D-45470 Muelheim/Ruhr               #
                  #                      Germany                        #
                  #                                                     #
                  #                  All rights reserved                #
                  #                        -***-                        #
                  #######################################################


                         Program Version 5.0.0 -  RELEASE  -


 With contributions from (in alphabetic order):
   Daniel Aravena         : Magnetic Suceptibility
   Michael Atanasov       : Ab Initio Ligand Field Theory (pilot matlab implementation)
   Alexander A. Auer      : GIAO ZORA, VPT2 properties, NMR spectrum
   Ute Becker             : Parallelization
   Giovanni Bistoni       : ED, misc. LED, open-shell LED, HFLD
   Martin Brehm           : Molecular dynamics
   Dmytro Bykov           : SCF Hessian
   Vijay G. Chilkuri      : MRCI spin determinant printing, contributions to CSF-ICE
   Dipayan Datta          : RHF DLPNO-CCSD density
   Achintya Kumar Dutta   : EOM-CC, STEOM-CC
   Dmitry Ganyushin       : Spin-Orbit,Spin-Spin,Magnetic field MRCI
   Miquel Garcia          : C-PCM Hessian, Gaussian charge scheme
   Yang Guo               : DLPNO-NEVPT2, F12-NEVPT2, CIM, IAO-localization
   Andreas Hansen         : Spin unrestricted coupled pair/coupled cluster methods
   Benjamin Helmich-Paris : MC-RPA, TRAH-SCF, COSX integrals
   Lee Huntington         : MR-EOM, pCC
   Robert Izsak           : Overlap fitted RIJCOSX, COSX-SCS-MP3, EOM
   Marcus Kettner         : VPT2
   Christian Kollmar      : KDIIS, OOCD, Brueckner-CCSD(T), CCSD density, CASPT2, CASPT2-K
   Simone Kossmann        : Meta GGA functionals, TD-DFT gradient, OOMP2, MP2 Hessian
   Martin Krupicka        : Initial AUTO-CI
   Lucas Lang             : DCDCAS
   Marvin Lechner         : AUTO-CI (C++ implementation), FIC-MRCC
   Dagmar Lenk            : GEPOL surface, SMD
   Dimitrios Liakos       : Extrapolation schemes; Compound Job, initial MDCI parallelization
   Dimitrios Manganas     : Further ROCIS development; embedding schemes
   Dimitrios Pantazis     : SARC Basis sets
   Anastasios Papadopoulos: AUTO-CI, single reference methods and gradients
   Taras Petrenko         : DFT Hessian,TD-DFT gradient, ASA, ECA, R-Raman, ABS, FL, XAS/XES, NRVS
   Peter Pinski           : DLPNO-MP2, DLPNO-MP2 Gradient
   Christoph Reimann      : Effective Core Potentials
   Marius Retegan         : Local ZFS, SOC
   Christoph Riplinger    : Optimizer, TS searches, QM/MM, DLPNO-CCSD(T), (RO)-DLPNO pert. Triples
   Tobias Risthaus        : Range-separated hybrids, TD-DFT gradient, RPA, STAB
   Michael Roemelt        : Original ROCIS implementation
   Masaaki Saitow         : Open-shell DLPNO-CCSD energy and density
   Barbara Sandhoefer     : DKH picture change effects
   Avijit Sen             : IP-ROCIS
   Kantharuban Sivalingam : CASSCF convergence, NEVPT2, FIC-MRCI
   Bernardo de Souza      : ESD, SOC TD-DFT
   Georgi Stoychev        : AutoAux, RI-MP2 NMR
   Willem Van den Heuvel  : Paramagnetic NMR
   Boris Wezisla          : Elementary symmetry handling
   Frank Wennmohs         : Technical directorship


 We gratefully acknowledge several colleagues who have allowed us to
 interface, adapt or use parts of their codes:
   Stefan Grimme, W. Hujo, H. Kruse, P. Pracht,  : VdW corrections, initial TS optimization,
                  C. Bannwarth, S. Ehlert          DFT functionals, gCP, sTDA/sTD-DF
   Ed Valeev, F. Pavosevic, A. Kumar             : LibInt (2-el integral package), F12 methods
   Garnet Chan, S. Sharma, J. Yang, R. Olivares  : DMRG
   Ulf Ekstrom                                   : XCFun DFT Library
   Mihaly Kallay                                 : mrcc  (arbitrary order and MRCC methods)
   Jiri Pittner, Ondrej Demel                    : Mk-CCSD
   Frank Weinhold                                : gennbo (NPA and NBO analysis)
   Christopher J. Cramer and Donald G. Truhlar   : smd solvation model
   Lars Goerigk                                  : TD-DFT with DH, B97 family of functionals
   V. Asgeirsson, H. Jonsson                     : NEB implementation
   FAccTs GmbH                                   : IRC, NEB, NEB-TS, DLPNO-Multilevel, CI-OPT
                                                   MM, QMMM, 2- and 3-layer-ONIOM, Crystal-QMMM,
                                                   LR-CPCM, SF, NACMEs, symmetry and pop. for TD-DFT,
                                                   nearIR, NL-DFT gradient (VV10), updates on ESD,
                                                   ML-optimized integration grids
   S Lehtola, MJT Oliveira, MAL Marques          : LibXC Library
   Liviu Ungur et al                             : ANISO software


 Your calculation uses the libint2 library for the computation of 2-el integrals
 For citations please refer to: http://libint.valeyev.net

 Your ORCA version has been built with support for libXC version: 5.1.0
 For citations please refer to: https://tddft.org/programs/libxc/

 This ORCA versions uses:
   CBLAS   interface :  Fast vector & matrix operations
   LAPACKE interface :  Fast linear algebra routines
   Shared memory     :  Shared parallel matrices


Your calculation utilizes the DFT-NL dispersion correction.
Cite in your paper:
Vydrov, O. A.; Van Voorhis, T. J. Chem. Phys. 2010, 133, 244103
Hujo, W.; Grimme, S. J. Chem. Theory Comput. 2011, 7, 3866 
   

================================================================================

----- Orbital basis set information -----
Your calculation utilizes the basis: def2-TZVP
   F. Weigend and R. Ahlrichs, Phys. Chem. Chem. Phys. 7, 3297 (2005).

----- AuxJ basis set information -----
Your calculation utilizes the auxiliary basis: def2/J
   F. Weigend, Phys. Chem. Chem. Phys. 8, 1057 (2006).

================================================================================
                                        WARNINGS
                       Please study these warnings very carefully!
================================================================================


INFO   : the flag for use of the SHARK integral package has been found!

================================================================================
                                       INPUT FILE
================================================================================
NAME = T.inp
|  1> ! wB97M-V def2-TZVP def2/J RIJCOSX strongSCF noautostart miniprint nopop
|  2> %maxcore  1000
|  3> %pal nprocs   8 end
|  4> * xyz   0   1
|  5> N     -3.92117290   -0.00096460   -1.51636590
|  6> C     -4.61368330    0.01690510   -0.33365200
|  7> C     -3.99173870    0.02193480    0.86633380
|  8> C     -2.53613670    0.00746510    0.87667240
|  9> N     -1.92564840   -0.01105930   -0.36389480
| 10> C     -2.53958970   -0.01494740   -1.59623570
| 11> C     -4.71061310    0.04133730    2.17386370
| 12> O     -1.86747300    0.01120930    1.91208330
| 13> O     -1.94167830   -0.02918780   -2.65737830
| 14> H     -4.40171720   -0.00360780   -2.40049240
| 15> H     -0.88382550   -0.02161680   -0.37842690
| 16> H     -5.69092200    0.02693470   -0.42271830
| 17> H     -4.44392820   -0.83025730    2.76956550
| 18> H     -4.42670560    0.91861780    2.75302560
| 19> H     -5.78839710    0.05055300    2.02472800
| 20>  *
| 21> 
| 22>                          ****END OF INPUT****
================================================================================

                       ****************************
                       * Single Point Calculation *
                       ****************************

---------------------------------
CARTESIAN COORDINATES (ANGSTROEM)
---------------------------------
  N     -3.921173   -0.000965   -1.516366
  C     -4.613683    0.016905   -0.333652
  C     -3.991739    0.021935    0.866334
  C     -2.536137    0.007465    0.876672
  N     -1.925648   -0.011059   -0.363895
  C     -2.539590   -0.014947   -1.596236
  C     -4.710613    0.041337    2.173864
  O     -1.867473    0.011209    1.912083
  O     -1.941678   -0.029188   -2.657378
  H     -4.401717   -0.003608   -2.400492
  H     -0.883826   -0.021617   -0.378427
  H     -5.690922    0.026935   -0.422718
  H     -4.443928   -0.830257    2.769566
  H     -4.426706    0.918618    2.753026
  H     -5.788397    0.050553    2.024728

----------------------------
CARTESIAN COORDINATES (A.U.)
----------------------------
  NO LB      ZA    FRAG     MASS         X           Y           Z
   0 N     7.0000    0    14.007   -7.409943   -0.001823   -2.865516
   1 C     6.0000    0    12.011   -8.718598    0.031946   -0.630511
   2 C     6.0000    0    12.011   -7.543293    0.041451    1.637134
   3 C     6.0000    0    12.011   -4.792604    0.014107    1.656671
   4 N     7.0000    0    14.007   -3.638948   -0.020899   -0.687662
   5 C     6.0000    0    12.011   -4.799129   -0.028246   -3.016448
   6 C     6.0000    0    12.011   -8.901769    0.078116    4.108007
   7 O     8.0000    0    15.999   -3.529013    0.021183    3.613314
   8 O     8.0000    0    15.999   -3.669240   -0.055157   -5.021717
   9 H     1.0000    0     1.008   -8.318040   -0.006818   -4.536273
  10 H     1.0000    0     1.008   -1.670188   -0.040850   -0.715123
  11 H     1.0000    0     1.008  -10.754284    0.050899   -0.798822
  12 H     1.0000    0     1.008   -8.397807   -1.568959    5.233720
  13 H     1.0000    0     1.008   -8.365261    1.735936    5.202464
  14 H     1.0000    0     1.008  -10.938485    0.095531    3.826181



           ************************************************************
           *        Program running with 8 parallel MPI-processes     *
           *              working on a common directory               *
           ************************************************************
------------------------------------------------------------------------------
                   ___                                                        
                  /   \      - P O W E R E D   B Y -                         
                 /     \                                                     
                 |  |  |   _    _      __       _____    __    __             
                 |  |  |  | |  | |    /  \     |  _  \  |  |  /  |          
                  \  \/   | |  | |   /    \    | | | |  |  | /  /          
                 / \  \   | |__| |  /  /\  \   | |_| |  |  |/  /          
                |  |  |   |  __  | /  /__\  \  |    /   |      \           
                |  |  |   | |  | | |   __   |  |    \   |  |\   \          
                \     /   | |  | | |  |  |  |  | |\  \  |  | \   \       
                 \___/    |_|  |_| |__|  |__|  |_| \__\ |__|  \__/        
                                                                              
                      - O R C A' S   B I G   F R I E N D -                    
                                      &                                       
                       - I N T E G R A L  F E E D E R -                       
                                                                              
 v1 FN, 2020, v2 2021                                                         
------------------------------------------------------------------------------


Reading SHARK input file T.SHARKINP.tmp ... ok
----------------------
SHARK INTEGRAL PACKAGE
----------------------

Number of atoms                             ...     15
Number of basis functions                   ...    315
Number of shells                            ...    123
Maximum angular momentum                    ...      3
Integral batch strategy                     ... SHARK/LIBINT Hybrid
RI-J (if used) integral strategy            ... SPLIT-RIJ (Revised 2003 algorithm where possible)
Printlevel                                  ...      1
Contraction scheme used                     ... SEGMENTED contraction
Coulomb Range Separation                    ... NOT USED
Exchange Range Separation                   ... Long Range
   Mu parameter                             ...  0.300000
   Scaling (regular/separated)              ...  0.150000  0.850000
Finite Nucleus Model                        ... NOT USED
Auxiliary Coulomb fitting basis             ... AVAILABLE
   # of basis functions in Aux-J            ...    507
   # of shells in Aux-J                     ...    165
   Maximum angular momentum in Aux-J        ...      4
Auxiliary J/K fitting basis                 ... NOT available
Auxiliary Correlation fitting basis         ... NOT available
Auxiliary 'external' fitting basis          ... NOT available
Integral threshold                          ...     1.000000e-10
Primitive cut-off                           ...     3.000000e-11
Primitive pair pre-selection threshold      ...     3.000000e-11

Calculating pre-screening integrals         ... done (  0.1 sec) Dimension = 123
Organizing shell pair data                  ... done (  0.1 sec)
Shell pair information
Total number of shell pairs                 ...      7626
Shell pairs after pre-screening             ...      6791
Total number of primitive shell pairs       ...     23652
Primitive shell pairs kept                  ...     15553
          la=0 lb=0:   1701 shell pairs
          la=1 lb=0:   1887 shell pairs
          la=1 lb=1:    524 shell pairs
          la=2 lb=0:   1005 shell pairs
          la=2 lb=1:    554 shell pairs
          la=2 lb=2:    156 shell pairs
          la=3 lb=0:    494 shell pairs
          la=3 lb=1:    277 shell pairs
          la=3 lb=2:    151 shell pairs
          la=3 lb=3:     42 shell pairs

Calculating one electron integrals          ... done (  0.0 sec)
Calculating RI/J V-Matrix + Cholesky decomp.... done (  0.0 sec)
Calculating Nuclear repulsion               ... done (  0.0 sec) ENN=    440.301569009499 Eh

SHARK setup successfully completed in   0.2 seconds

Maximum memory used throughout the entire GTOINT-calculation: 14.0 MB


           ************************************************************
           *        Program running with 8 parallel MPI-processes     *
           *              working on a common directory               *
           ************************************************************

Diagonalization of the overlap matrix:
Smallest eigenvalue                        ... 9.147e-05
Time for diagonalization                   ...    0.009 sec
Threshold for overlap eigenvalues          ... 1.000e-08
Number of eigenvalues below threshold      ... 0
Time for construction of square roots      ...    0.013 sec
Total time needed                          ...    0.023 sec

Time for model grid setup =    0.085 sec

Loading Hartree-Fock densities                     ... done
Calculating cut-offs                               ... done
Initializing the effective Hamiltonian             ... done
Setting up the integral package (SHARK)            ... done
Starting the Coulomb interaction                   ... done (   0.1 sec)
Reading the grid                                   ... done
Mapping shells                                     ... done
Starting the XC term evaluation                    ... done (   0.1 sec)
  promolecular density results
     # of electrons  =     65.994893046
     EX              =    -56.770991709
     EC              =     -2.225688035
     EX+EC           =    -58.996679744
Transforming the Hamiltonian                       ... done (   0.0 sec)
Diagonalizing the Hamiltonian                      ... done (   0.0 sec)
Back transforming the eigenvectors                 ... done (   0.0 sec)
Now organizing SCF variables                       ... done
-------------------
DFT GRID GENERATION
-------------------

General Integration Accuracy     IntAcc      ... 4.388
Radial Grid Type                 RadialGrid  ... OptM3 with GC (2021)
Angular Grid (max. ang.)         AngularGrid ... 4 (Lebedev-302)
Angular grid pruning method      GridPruning ... 4 (adaptive)
Weight generation scheme         WeightScheme... Becke
Basis function cutoff            BFCut       ... 3.0000e-11
Integration weight cutoff        WCut        ... 1.0000e-14
Angular grids for H and He will be reduced by one unit
Partially contracted basis set               ... off
Rotationally invariant grid construction     ... off

Total number of grid points                  ...    73579
Total number of batches                      ...     1158
Average number of points per batch           ...       63
Average number of grid points per atom       ...     4905
Time for grid setup =    0.402 sec

--------------------
COSX GRID GENERATION
--------------------

GRIDX 1
-------
General Integration Accuracy     IntAcc      ... 3.816
Radial Grid Type                 RadialGrid  ... OptM3 with GC (2021)
Angular Grid (max. ang.)         AngularGrid ... 1 (Lebedev-50)
Angular grid pruning method      GridPruning ... 4 (adaptive)
Weight generation scheme         WeightScheme... Becke
Basis function cutoff            BFCut       ... 3.0000e-11
Integration weight cutoff        WCut        ... 1.0000e-14
Angular grids for H and He will be reduced by one unit
Partially contracted basis set               ... on
Rotationally invariant grid construction     ... off

Total number of grid points                  ...     9390
Total number of batches                      ...      155
Average number of points per batch           ...       60
Average number of grid points per atom       ...      626
UseSFitting                                  ... on

GRIDX 2
-------
General Integration Accuracy     IntAcc      ... 4.020
Radial Grid Type                 RadialGrid  ... OptM3 with GC (2021)
Angular Grid (max. ang.)         AngularGrid ... 2 (Lebedev-110)
Angular grid pruning method      GridPruning ... 4 (adaptive)
Weight generation scheme         WeightScheme... Becke
Basis function cutoff            BFCut       ... 3.0000e-11
Integration weight cutoff        WCut        ... 1.0000e-14
Angular grids for H and He will be reduced by one unit
Partially contracted basis set               ... on
Rotationally invariant grid construction     ... off

Total number of grid points                  ...    20828
Total number of batches                      ...      333
Average number of points per batch           ...       62
Average number of grid points per atom       ...     1389
UseSFitting                                  ... on

GRIDX 3
-------
General Integration Accuracy     IntAcc      ... 4.338
Radial Grid Type                 RadialGrid  ... OptM3 with GC (2021)
Angular Grid (max. ang.)         AngularGrid ... 3 (Lebedev-194)
Angular grid pruning method      GridPruning ... 4 (adaptive)
Weight generation scheme         WeightScheme... Becke
Basis function cutoff            BFCut       ... 3.0000e-11
Integration weight cutoff        WCut        ... 1.0000e-14
Angular grids for H and He will be reduced by one unit
Partially contracted basis set               ... on
Rotationally invariant grid construction     ... off

Total number of grid points                  ...    45907
Total number of batches                      ...      725
Average number of points per batch           ...       63
Average number of grid points per atom       ...     3060
UseSFitting                                  ... on

Time for X-Grid setup             =    0.395 sec

--------------
SCF ITERATIONS
--------------
ITER       Energy         Delta-E        Max-DP      RMS-DP      [F,P]     Damp
               ***  Starting incremental Fock matrix formation  ***
  0   -454.1088334311   0.000000000000 0.16477663  0.00164330  0.3011096 0.7000
  1   -454.2475602915  -0.138726860393 0.14866915  0.00137005  0.1436003 0.7000
                               ***Turning on DIIS***
  2   -454.3091445850  -0.061584293572 0.22424758  0.00227256  0.0555244 0.0000
  3   -454.4135907564  -0.104446171351 0.11980076  0.00103628  0.0686922 0.0000
  4   -454.4291297060  -0.015538949596 0.02311129  0.00023062  0.0115198 0.0000
  5   -454.4298979459  -0.000768239926 0.01403265  0.00011941  0.0042336 0.0000
                      *** Initiating the SOSCF procedure ***
                           *** Shutting down DIIS ***
                      *** Re-Reading the Fockian *** 
                      *** Removing any level shift *** 
ITER      Energy       Delta-E        Grad      Rot      Max-DP    RMS-DP
  6   -454.43002173  -0.0001237808  0.001496  0.001496  0.009179  0.000073
               *** Restarting incremental Fock matrix formation ***
  7   -454.43006180  -0.0000400709  0.000911  0.002472  0.006436  0.000050
  8   -454.43007831  -0.0000165129  0.000416  0.002409  0.006761  0.000052
  9   -454.43008244  -0.0000041329  0.000260  0.000654  0.001189  0.000012
 10   -454.43008422  -0.0000017784  0.000060  0.000124  0.001020  0.000008
 11   -454.43008430  -0.0000000784  0.000053  0.000058  0.000429  0.000003
 12   -454.43008439  -0.0000000891  0.000011  0.000035  0.000021  0.000000
                 **** Energy Check signals convergence ****
              ***Rediagonalizing the Fockian in SOSCF/NRSCF***

               *****************************************************
               *                     SUCCESS                       *
               *           SCF CONVERGED AFTER  13 CYCLES          *
               *****************************************************

Old exchange energy                            =    -17.510327967 Eh
New exchange energy                            =    -17.510310861 Eh
Exchange energy change after final integration =      0.000017106 Eh
Total energy after final integration           =   -454.430067299 Eh
Final COS-X integration done in                =     8.571 sec

------------------
NL GRID GENERATION
------------------

General Integration Accuracy     IntAcc      ... 4.004
Radial Grid Type                 RadialGrid  ... OptM3 with GC (2021)
Angular Grid (max. ang.)         AngularGrid ... 2 (Lebedev-110)
Angular grid pruning method      GridPruning ... 4 (adaptive)
Weight generation scheme         WeightScheme... Becke
Basis function cutoff            BFCut       ... 1.0000e-10
Integration weight cutoff        WCut        ... 1.0000e-14
Angular grids for H and He will be reduced by one unit
Partially contracted basis set               ... off
Rotationally invariant grid construction     ... off

Total number of grid points                  ...    23862
Total number of batches                      ...      383
Average number of points per batch           ...       62
Average number of grid points per atom       ...     1591
Final grid set up in    0.1 sec

-------------------------------------------------------------------------------
                    post-SCF DFT-NL dispersion correction                      
-------------------------------------------------------------------------------

SCF Energy:   -454.430067299 
NL    Energy:  0.254283111 
SC+NL Energy: -454.175784188 
NL done in:    0.6 sec
-------------------------------------------------------------------------------
Total Energy       :         -454.17578419 Eh          -12358.75139 eV
  Last Energy change         ...   -1.5714e-08  Tolerance :   3.0000e-07
  Last MAX-Density change    ...    9.9920e-16  Tolerance :   3.0000e-06
             **** THE GBW FILE WAS UPDATED (T.gbw) ****
             **** DENSITY T.scfp WAS UPDATED ****
             **** ENERGY FILE WAS UPDATED (T.en.tmp) ****
             **** THE GBW FILE WAS UPDATED (T.gbw) ****
             **** DENSITY T.scfp WAS UPDATED ****
----------------
ORBITAL ENERGIES
----------------

  NO   OCC          E(Eh)            E(eV) 
   0   2.0000     -19.318744      -525.6898 
   1   2.0000     -19.312778      -525.5274 
   2   2.0000     -14.578978      -396.7142 
   3   2.0000     -14.570058      -396.4714 
   4   2.0000     -10.508460      -285.9497 
   5   2.0000     -10.472250      -284.9644 
   6   2.0000     -10.429621      -283.8044 
   7   2.0000     -10.375849      -282.3412 
   8   2.0000     -10.352153      -281.6964 
   9   2.0000      -1.215818       -33.0841 
  10   2.0000      -1.175448       -31.9856 
  11   2.0000      -1.115366       -30.3507 
  12   2.0000      -1.064015       -28.9533 
  13   2.0000      -0.950168       -25.8554 
  14   2.0000      -0.843802       -22.9610 
  15   2.0000      -0.805425       -21.9167 
  16   2.0000      -0.790092       -21.4995 
  17   2.0000      -0.689705       -18.7678 
  18   2.0000      -0.686173       -18.6717 
  19   2.0000      -0.635356       -17.2889 
  20   2.0000      -0.610305       -16.6073 
  21   2.0000      -0.589144       -16.0314 
  22   2.0000      -0.558188       -15.1891 
  23   2.0000      -0.542960       -14.7747 
  24   2.0000      -0.540697       -14.7131 
  25   2.0000      -0.513615       -13.9762 
  26   2.0000      -0.511721       -13.9246 
  27   2.0000      -0.495861       -13.4931 
  28   2.0000      -0.472397       -12.8546 
  29   2.0000      -0.409879       -11.1534 
  30   2.0000      -0.394448       -10.7335 
  31   2.0000      -0.378529       -10.3003 
  32   2.0000      -0.338857        -9.2208 
  33   0.0000       0.030005         0.8165 
  34   0.0000       0.073398         1.9973 
  35   0.0000       0.086688         2.3589 
  36   0.0000       0.103681         2.8213 
  37   0.0000       0.106983         2.9111 
  38   0.0000       0.130657         3.5554 
  39   0.0000       0.158914         4.3243 
  40   0.0000       0.173172         4.7123 
  41   0.0000       0.175439         4.7739 
  42   0.0000       0.204211         5.5569 
  43   0.0000       0.206969         5.6319 
  44   0.0000       0.210731         5.7343 
  45   0.0000       0.230369         6.2687 
  46   0.0000       0.239419         6.5149 
  47   0.0000       0.266873         7.2620 
  48   0.0000       0.267923         7.2906 
  49   0.0000       0.289677         7.8825 
  50   0.0000       0.297570         8.0973 
  51   0.0000       0.304503         8.2859 
  52   0.0000       0.307628         8.3710 
  53   0.0000       0.337199         9.1756 
  54   0.0000       0.352566         9.5938 
  55   0.0000       0.352892         9.6027 
  56   0.0000       0.366293         9.9673 
  57   0.0000       0.376285        10.2392 
  58   0.0000       0.396993        10.8027 
  59   0.0000       0.399505        10.8711 
  60   0.0000       0.415920        11.3178 
  61   0.0000       0.418910        11.3991 
  62   0.0000       0.437363        11.9013 
  63   0.0000       0.462269        12.5790 
  64   0.0000       0.479737        13.0543 
  65   0.0000       0.481357        13.0984 
  66   0.0000       0.487340        13.2612 
  67   0.0000       0.500500        13.6193 
  68   0.0000       0.531168        14.4538 
  69   0.0000       0.533150        14.5078 
  70   0.0000       0.546208        14.8631 
  71   0.0000       0.552426        15.0323 
  72   0.0000       0.559161        15.2155 
  73   0.0000       0.573371        15.6022 
  74   0.0000       0.585933        15.9440 
  75   0.0000       0.588601        16.0166 
  76   0.0000       0.596446        16.2301 
  77   0.0000       0.604456        16.4481 
  78   0.0000       0.614584        16.7237 
  79   0.0000       0.628948        17.1145 
  80   0.0000       0.641603        17.4589 
  81   0.0000       0.666829        18.1453 
  82   0.0000       0.681189        18.5361 
  83   0.0000       0.686520        18.6811 
  84   0.0000       0.688520        18.7356 
  85   0.0000       0.698214        18.9994 
  86   0.0000       0.734319        19.9818 
  87   0.0000       0.757061        20.6007 
  88   0.0000       0.778177        21.1753 
  89   0.0000       0.801161        21.8007 
  90   0.0000       0.827037        22.5048 
  91   0.0000       0.830850        22.6086 
  92   0.0000       0.865138        23.5416 
  93   0.0000       0.888467        24.1764 
  94   0.0000       0.889435        24.2028 
  95   0.0000       0.902416        24.5560 
  96   0.0000       0.906946        24.6792 
  97   0.0000       0.954577        25.9754 
  98   0.0000       0.963825        26.2270 
  99   0.0000       0.972082        26.4517 
 100   0.0000       0.982195        26.7269 
 101   0.0000       1.032959        28.1083 
 102   0.0000       1.041672        28.3453 
 103   0.0000       1.065744        29.0004 
 104   0.0000       1.097285        29.8586 
 105   0.0000       1.127852        30.6904 
 106   0.0000       1.152385        31.3580 
 107   0.0000       1.175722        31.9930 
 108   0.0000       1.200464        32.6663 
 109   0.0000       1.265128        34.4259 
 110   0.0000       1.272763        34.6336 
 111   0.0000       1.312644        35.7189 
 112   0.0000       1.313025        35.7292 
 113   0.0000       1.327727        36.1293 
 114   0.0000       1.338118        36.4121 
 115   0.0000       1.363723        37.1088 
 116   0.0000       1.390479        37.8369 
 117   0.0000       1.420360        38.6500 
 118   0.0000       1.444958        39.3193 
 119   0.0000       1.447563        39.3902 
 120   0.0000       1.460829        39.7512 
 121   0.0000       1.527597        41.5680 
 122   0.0000       1.541022        41.9334 
 123   0.0000       1.575756        42.8785 
 124   0.0000       1.576862        42.9086 
 125   0.0000       1.580720        43.0136 
 126   0.0000       1.602439        43.6046 
 127   0.0000       1.604592        43.6632 
 128   0.0000       1.616749        43.9940 
 129   0.0000       1.628105        44.3030 
 130   0.0000       1.646591        44.8060 
 131   0.0000       1.653868        45.0040 
 132   0.0000       1.659632        45.1609 
 133   0.0000       1.668944        45.4143 
 134   0.0000       1.677485        45.6467 
 135   0.0000       1.687348        45.9151 
 136   0.0000       1.724612        46.9291 
 137   0.0000       1.765308        48.0365 
 138   0.0000       1.772117        48.2218 
 139   0.0000       1.784491        48.5585 
 140   0.0000       1.823492        49.6197 
 141   0.0000       1.855722        50.4968 
 142   0.0000       1.870777        50.9064 
 143   0.0000       1.892670        51.5022 
 144   0.0000       1.906405        51.8759 
 145   0.0000       1.953547        53.1587 
 146   0.0000       1.985729        54.0344 
 147   0.0000       2.046791        55.6960 
 148   0.0000       2.047643        55.7192 
 149   0.0000       2.074348        56.4459 
 150   0.0000       2.084766        56.7294 
 151   0.0000       2.112013        57.4708 
 152   0.0000       2.118122        57.6370 
 153   0.0000       2.127582        57.8945 
 154   0.0000       2.169070        59.0234 
 155   0.0000       2.175843        59.2077 
 156   0.0000       2.217138        60.3314 
 157   0.0000       2.229673        60.6725 
 158   0.0000       2.243762        61.0559 
 159   0.0000       2.279208        62.0204 
 160   0.0000       2.316753        63.0421 
 161   0.0000       2.322080        63.1870 
 162   0.0000       2.356686        64.1287 
 163   0.0000       2.372463        64.5580 
 164   0.0000       2.376046        64.6555 
 165   0.0000       2.414166        65.6928 
 166   0.0000       2.415811        65.7376 
 167   0.0000       2.434819        66.2548 
 168   0.0000       2.476824        67.3978 
 169   0.0000       2.498670        67.9923 
 170   0.0000       2.513001        68.3822 
 171   0.0000       2.535210        68.9866 
 172   0.0000       2.571515        69.9745 
 173   0.0000       2.587596        70.4121 
 174   0.0000       2.624066        71.4045 
 175   0.0000       2.644159        71.9512 
 176   0.0000       2.700290        73.4786 
 177   0.0000       2.712404        73.8083 
 178   0.0000       2.724242        74.1304 
 179   0.0000       2.732283        74.3492 
 180   0.0000       2.764507        75.2261 
 181   0.0000       2.775793        75.5332 
 182   0.0000       2.802067        76.2481 
 183   0.0000       2.804495        76.3142 
 184   0.0000       2.874713        78.2249 
 185   0.0000       2.880682        78.3874 
 186   0.0000       2.903642        79.0121 
 187   0.0000       2.943358        80.0928 
 188   0.0000       2.945761        80.1582 
 189   0.0000       2.954387        80.3930 
 190   0.0000       2.989197        81.3402 
 191   0.0000       2.997530        81.5669 
 192   0.0000       3.012251        81.9675 
 193   0.0000       3.018900        82.1484 
 194   0.0000       3.035320        82.5953 
 195   0.0000       3.054278        83.1111 
 196   0.0000       3.062077        83.3233 
 197   0.0000       3.078857        83.7800 
 198   0.0000       3.093321        84.1736 
 199   0.0000       3.099664        84.3462 
 200   0.0000       3.115135        84.7671 
 201   0.0000       3.142483        85.5113 
 202   0.0000       3.173860        86.3651 
 203   0.0000       3.191256        86.8385 
 204   0.0000       3.204937        87.2108 
 205   0.0000       3.232250        87.9540 
 206   0.0000       3.241041        88.1932 
 207   0.0000       3.270136        88.9849 
 208   0.0000       3.299804        89.7922 
 209   0.0000       3.312131        90.1277 
 210   0.0000       3.313778        90.1725 
 211   0.0000       3.319363        90.3244 
 212   0.0000       3.323519        90.4376 
 213   0.0000       3.344090        90.9973 
 214   0.0000       3.399092        92.4940 
 215   0.0000       3.402154        92.5773 
 216   0.0000       3.417989        93.0082 
 217   0.0000       3.421608        93.1067 
 218   0.0000       3.441856        93.6577 
 219   0.0000       3.461251        94.1854 
 220   0.0000       3.477603        94.6304 
 221   0.0000       3.493249        95.0561 
 222   0.0000       3.556993        96.7907 
 223   0.0000       3.558635        96.8354 
 224   0.0000       3.569812        97.1395 
 225   0.0000       3.570619        97.1615 
 226   0.0000       3.605954        98.1230 
 227   0.0000       3.644013        99.1586 
 228   0.0000       3.715522       101.1045 
 229   0.0000       3.735589       101.6505 
 230   0.0000       3.755887       102.2029 
 231   0.0000       3.803246       103.4916 
 232   0.0000       3.805781       103.5606 
 233   0.0000       3.827549       104.1529 
 234   0.0000       3.844619       104.6174 
 235   0.0000       3.868071       105.2556 
 236   0.0000       3.985448       108.4496 
 237   0.0000       4.009330       109.0994 
 238   0.0000       4.043400       110.0265 
 239   0.0000       4.095855       111.4539 
 240   0.0000       4.100590       111.5827 
 241   0.0000       4.136406       112.5573 
 242   0.0000       4.169305       113.4525 
 243   0.0000       4.228466       115.0624 
 244   0.0000       4.250195       115.6537 
 245   0.0000       4.321052       117.5818 
 246   0.0000       4.348680       118.3336 
 247   0.0000       4.366587       118.8209 
 248   0.0000       4.378694       119.1503 
 249   0.0000       4.425178       120.4152 
 250   0.0000       4.452900       121.1696 
 251   0.0000       4.514728       122.8520 
 252   0.0000       4.557468       124.0150 
 253   0.0000       4.603358       125.2637 
 254   0.0000       4.645365       126.4068 
 255   0.0000       4.654827       126.6643 
 256   0.0000       4.673138       127.1625 
 257   0.0000       4.767680       129.7352 
 258   0.0000       4.797935       130.5585 
 259   0.0000       4.819430       131.1434 
 260   0.0000       4.885601       132.9439 
 261   0.0000       4.909854       133.6039 
 262   0.0000       4.977315       135.4396 
 263   0.0000       5.055180       137.5584 
 264   0.0000       5.072261       138.0232 
 265   0.0000       5.083203       138.3210 
 266   0.0000       5.098373       138.7338 
 267   0.0000       5.138680       139.8306 
 268   0.0000       5.162788       140.4866 
 269   0.0000       5.208783       141.7382 
 270   0.0000       5.242223       142.6481 
 271   0.0000       5.289168       143.9256 
 272   0.0000       5.317326       144.6918 
 273   0.0000       5.327292       144.9630 
 274   0.0000       5.358912       145.8234 
 275   0.0000       5.380598       146.4135 
 276   0.0000       5.389072       146.6441 
 277   0.0000       5.434492       147.8800 
 278   0.0000       5.474943       148.9808 
 279   0.0000       5.485117       149.2576 
 280   0.0000       5.618964       152.8998 
 281   0.0000       5.631942       153.2529 
 282   0.0000       5.715247       155.5198 
 283   0.0000       5.716931       155.5656 
 284   0.0000       5.763302       156.8274 
 285   0.0000       5.827828       158.5833 
 286   0.0000       5.830740       158.6625 
 287   0.0000       5.948946       161.8790 
 288   0.0000       6.006264       163.4387 
 289   0.0000       6.178382       168.1223 
 290   0.0000       6.206434       168.8856 
 291   0.0000       6.272394       170.6805 
 292   0.0000       6.429165       174.9465 
 293   0.0000       6.486360       176.5028 
 294   0.0000       6.487344       176.5296 
 295   0.0000       6.514039       177.2560 
 296   0.0000       6.677494       181.7039 
 297   0.0000       6.715032       182.7253 
 298   0.0000       6.802964       185.1181 
 299   0.0000       6.913177       188.1171 
 300   0.0000       6.929064       188.5494 
 301   0.0000       7.083730       192.7581 
 302   0.0000       7.172244       195.1667 
 303   0.0000       7.182570       195.4477 
 304   0.0000       7.219728       196.4588 
 305   0.0000       7.292805       198.4473 
 306   0.0000      22.733427       618.6080 
 307   0.0000      22.960675       624.7917 
 308   0.0000      23.298517       633.9849 
 309   0.0000      23.688818       644.6055 
 310   0.0000      23.893314       650.1701 
 311   0.0000      32.680097       889.2706 
 312   0.0000      32.927895       896.0136 
 313   0.0000      44.320123      1206.0119 
 314   0.0000      44.378931      1207.6121 
Total SCF time: 0 days 0 hours 0 min 49 sec 

Maximum memory used throughout the entire SCF-calculation: 77.9 MB

-------------------------   --------------------
FINAL SINGLE POINT ENERGY      -454.175784187858
-------------------------   --------------------


                            ***************************************
                            *     ORCA property calculations      *
                            ***************************************

                                    ---------------------
                                    Active property flags
                                    ---------------------
   (+) Dipole Moment


------------------------------------------------------------------------------
                       ORCA ELECTRIC PROPERTIES CALCULATION
------------------------------------------------------------------------------

Dipole Moment Calculation                       ... on
Quadrupole Moment Calculation                   ... off
Polarizability Calculation                      ... off
GBWName                                         ... T.gbw
Electron density file                           ... T.scfp
The origin for moment calculation is the CENTER OF MASS  = (-5.837571,  0.008374 -0.150062)

-------------
DIPOLE MOMENT
-------------
                                X             Y             Z
Electronic contribution:      4.94422      -0.09399      -4.81244
Nuclear contribution   :     -6.62498       0.10647       4.50586
                        -----------------------------------------
Total Dipole Moment    :     -1.68076       0.01248      -0.30658
                        -----------------------------------------
Magnitude (a.u.)       :      1.70853
Magnitude (Debye)      :      4.34275



--------------------
Rotational spectrum 
--------------------
 
Rotational constants in cm-1:     0.107569     0.047037     0.032924 
Rotational constants in MHz :  3224.828965  1410.138266   987.028038 

 Dipole components along the rotational axes: 
x,y,z [a.u.] :     0.231200     1.692819     0.001223 
x,y,z [Debye]:     0.587663     4.302803     0.003108 

 

Timings for individual modules:

Sum of individual times         ...       50.396 sec (=   0.840 min)
GTO integral calculation        ...        0.638 sec (=   0.011 min)   1.3 %
SCF iterations                  ...       49.758 sec (=   0.829 min)  98.7 %
                             ****ORCA TERMINATED NORMALLY****
TOTAL RUN TIME: 0 days 0 hours 0 minutes 51 seconds 35 msec
