Title Card Required                                                     
SP        RB3LYP                                                      6-31G(d)            
Number of atoms                            I                4
Info1-9                                    I   N=           9
          19          13           0           0           0         110
           1          18        -502
Full Title                                 C   N=           2
Title Card Required     
Route                                      C   N=           2
# B3LYP/6-31G* nosymm   
Charge                                     I                0
Multiplicity                               I                1
Number of electrons                        I               14
Number of alpha electrons                  I                7
Number of beta electrons                   I                7
Number of basis functions                  I               34
Number of independent functions            I               34
Number of point charges in /Mol/           I                0
Number of translation vectors              I                0
Atomic numbers                             I   N=           4
           6           6           1           1
Nuclear charges                            R   N=           4
  6.00000000E+00  6.00000000E+00  1.00000000E+00  1.00000000E+00
Current cartesian coordinates              R   N=          12
 -1.16165866E+00  3.21282173E+00  0.00000000E+00  1.16165866E+00  3.21282173E+00
  0.00000000E+00 -2.97885358E+00  4.08530242E+00  0.00000000E+00  2.97885358E+00
  4.08530242E+00  0.00000000E+00
Number of symbols in /Mol/                 I                0
Force Field                                I                0
Atom Types                                 C   N=           4
                                                
Int Atom Types                             I   N=           4
           0           0           0           0
MM charges                                 R   N=           4
  0.00000000E+00  0.00000000E+00  0.00000000E+00  0.00000000E+00
Integer atomic weights                     I   N=           4
          12          12           1           1
Real atomic weights                        R   N=           4
  1.20000000E+01  1.20000000E+01  1.00782504E+00  1.00782504E+00
Atom fragment info                         I   N=           4
           0           0           0           0
Atom residue num                           I   N=           4
           0           0           0           0
Nuclear spins                              I   N=           4
           0           0           1           1
Nuclear ZEff                               R   N=           4
 -3.60000000E+00 -3.60000000E+00 -1.00000000E+00 -1.00000000E+00
Nuclear ZNuc                               R   N=           4
  6.00000000E+00  6.00000000E+00  1.00000000E+00  1.00000000E+00
Nuclear QMom                               R   N=           4
  0.00000000E+00  0.00000000E+00  0.00000000E+00  0.00000000E+00
Nuclear GFac                               R   N=           4
  0.00000000E+00  0.00000000E+00  2.79284600E+00  2.79284600E+00
MicOpt                                     I   N=           4
          -1          -1          -1          -1
Number of residues                         I                0
Number of secondary structures             I                0
Number of contracted shells                I               12
Number of primitive shells                 I               30
Pure/Cartesian d shells                    I                1
Pure/Cartesian f shells                    I                0
Highest angular momentum                   I                2
Largest degree of contraction              I                6
Shell types                                I   N=          12
           0          -1          -1           2           0          -1
          -1           2           0           0           0           0
Number of primitives per shell             I   N=          12
           6           3           1           1           6           3
           1           1           3           1           3           1
Shell to atom map                          I   N=          12
           1           1           1           1           2           2
           2           2           3           3           4           4
Primitive exponents                        R   N=          30
  3.04752488E+03  4.57369518E+02  1.03948685E+02  2.92101553E+01  9.28666296E+00
  3.16392696E+00  7.86827235E+00  1.88128854E+00  5.44249258E-01  1.68714478E-01
  8.00000000E-01  3.04752488E+03  4.57369518E+02  1.03948685E+02  2.92101553E+01
  9.28666296E+00  3.16392696E+00  7.86827235E+00  1.88128854E+00  5.44249258E-01
  1.68714478E-01  8.00000000E-01  1.87311370E+01  2.82539436E+00  6.40121692E-01
  1.61277759E-01  1.87311370E+01  2.82539436E+00  6.40121692E-01  1.61277759E-01
Contraction coefficients                   R   N=          30
  1.83473713E-03  1.40373228E-02  6.88426223E-02  2.32184443E-01  4.67941348E-01
  3.62311985E-01 -1.19332420E-01 -1.60854152E-01  1.14345644E+00  1.00000000E+00
  1.00000000E+00  1.83473713E-03  1.40373228E-02  6.88426223E-02  2.32184443E-01
  4.67941348E-01  3.62311985E-01 -1.19332420E-01 -1.60854152E-01  1.14345644E+00
  1.00000000E+00  1.00000000E+00  3.34946043E-02  2.34726953E-01  8.13757326E-01
  1.00000000E+00  3.34946043E-02  2.34726953E-01  8.13757326E-01  1.00000000E+00
P(S=P) Contraction coefficients            R   N=          30
  0.00000000E+00  0.00000000E+00  0.00000000E+00  0.00000000E+00  0.00000000E+00
  0.00000000E+00  6.89990666E-02  3.16423961E-01  7.44308291E-01  1.00000000E+00
  0.00000000E+00  0.00000000E+00  0.00000000E+00  0.00000000E+00  0.00000000E+00
  0.00000000E+00  0.00000000E+00  6.89990666E-02  3.16423961E-01  7.44308291E-01
  1.00000000E+00  0.00000000E+00  0.00000000E+00  0.00000000E+00  0.00000000E+00
  0.00000000E+00  0.00000000E+00  0.00000000E+00  0.00000000E+00  0.00000000E+00
Coordinates of each shell                  R   N=          36
 -1.16165866E+00  3.21282173E+00  0.00000000E+00 -1.16165866E+00  3.21282173E+00
  0.00000000E+00 -1.16165866E+00  3.21282173E+00  0.00000000E+00 -1.16165866E+00
  3.21282173E+00  0.00000000E+00  1.16165866E+00  3.21282173E+00  0.00000000E+00
  1.16165866E+00  3.21282173E+00  0.00000000E+00  1.16165866E+00  3.21282173E+00
  0.00000000E+00  1.16165866E+00  3.21282173E+00  0.00000000E+00 -2.97885358E+00
  4.08530242E+00  0.00000000E+00 -2.97885358E+00  4.08530242E+00  0.00000000E+00
  2.97885358E+00  4.08530242E+00  0.00000000E+00  2.97885358E+00  4.08530242E+00
  0.00000000E+00
Num ILSW                                   I              100
ILSW                                       I   N=         100
           0           1           0           0           2           0
           0           0           0           0         402          -1
           5           0           0           0           0           0
           0           0           1           0           0           0
           1           1           0           0           0           0
           0           0      100000           0          -1           0
           0           0           0           0           0           0
           0           0           0           1           0           0
           0 -2000000000           1           0           0           0
           0           0           4          52           0           0
           0           0           5           0           0           0
           0           0           0           0           0           1
           0           0           0           0           0           0
           0           0           0           0           0           0
           0           0           0           0           0           0
           0           0           0           0           0           0
           0           0           0           0
Num RLSW                                   I               52
RLSW                                       R   N=          52
  8.00000000E-01  7.20000000E-01  1.00000000E+00  8.10000000E-01  2.00000000E-01
  0.00000000E+00  0.00000000E+00  1.00000000E+00  0.00000000E+00  0.00000000E+00
  0.00000000E+00  0.00000000E+00  1.00000000E+00  0.00000000E+00  0.00000000E+00
  0.00000000E+00  0.00000000E+00  1.00000000E+00  0.00000000E+00  0.00000000E+00
  0.00000000E+00  0.00000000E+00  1.00000000E+00  0.00000000E+00  0.00000000E+00
  0.00000000E+00  0.00000000E+00  1.00000000E+00  0.00000000E+00  0.00000000E+00
  0.00000000E+00  0.00000000E+00  1.00000000E+00  0.00000000E+00  0.00000000E+00
  0.00000000E+00  0.00000000E+00  0.00000000E+00  1.00000000E+00  1.00000000E+00
  0.00000000E+00  1.00000000E+00  0.00000000E+00  0.00000000E+00  0.00000000E+00
  0.00000000E+00  0.00000000E+00  0.00000000E+00  0.00000000E+00  0.00000000E+00
  0.00000000E+00  0.00000000E+00
MxBond                                     I                2
NBond                                      I   N=           4
           2           2           1           1
IBond                                      I   N=           8
           2           3           1           4           1           0
           2           0
RBond                                      R   N=           8
  3.00000000E+00  1.00000000E+00  3.00000000E+00  1.00000000E+00  1.00000000E+00
  0.00000000E+00  1.00000000E+00  0.00000000E+00
Virial Ratio                               R      2.011225691135890E+00
SCF Energy                                 R     -7.730820355455548E+01
Total Energy                               R     -7.730820355455548E+01
RMS Density                                R      2.167122016295211E-09
Job Status                                 I                1
Nuclear derivative order                   I                0
External E-field                           R   N=          35
  0.00000000E+00  0.00000000E+00  0.00000000E+00  0.00000000E+00  0.00000000E+00
  0.00000000E+00  0.00000000E+00  0.00000000E+00  0.00000000E+00  0.00000000E+00
  0.00000000E+00  0.00000000E+00  0.00000000E+00  0.00000000E+00  0.00000000E+00
  0.00000000E+00  0.00000000E+00  0.00000000E+00  0.00000000E+00  0.00000000E+00
  0.00000000E+00  0.00000000E+00  0.00000000E+00  0.00000000E+00  0.00000000E+00
  0.00000000E+00  0.00000000E+00  0.00000000E+00  0.00000000E+00  0.00000000E+00
  0.00000000E+00  0.00000000E+00  0.00000000E+00  0.00000000E+00  0.00000000E+00
IOpCl                                      I                0
IROHF                                      I                0
Alpha Orbital Energies                     R   N=          34
 -1.01970063E+01 -1.01950146E+01 -7.41702775E-01 -5.62143373E-01 -4.84515125E-01
 -2.79193589E-01 -2.78556746E-01 -1.37794056E-02  4.58061058E-02  1.49411613E-01
  1.54781492E-01  4.17075335E-01  4.73765166E-01  5.35749645E-01  5.37755703E-01
  6.19636822E-01  6.49763976E-01  7.12541991E-01  8.47562201E-01  9.18687439E-01
  1.09248406E+00  1.17010246E+00  1.49285621E+00  1.55213137E+00  1.55222868E+00
  1.73815861E+00  1.92065038E+00  1.94809042E+00  2.30211552E+00  2.47079963E+00
  2.63442659E+00  3.06145009E+00  4.08964338E+00  4.22663851E+00
Alpha MO coefficients                      R   N=        1156
  7.01553101E-01  3.38417183E-02 -3.89011407E-04  4.70937961E-05  4.52354201E-16
 -4.27778800E-03  6.17645897E-04 -1.95140889E-04 -3.65683738E-16 -6.29736455E-03
 -7.28839185E-03 -7.34468539E-03 -1.18884655E-04  2.05772844E-16 -1.92312867E-16
  7.01553102E-01  3.38417184E-02  3.89011406E-04  4.70937960E-05 -5.29134053E-17
 -4.27778802E-03 -6.17645892E-04 -1.95140889E-04  2.23193208E-16 -6.29736456E-03
 -7.28839186E-03 -7.34468540E-03  1.18884656E-04  5.47970995E-16 -2.78563845E-16
 -6.27690197E-04  1.47085403E-03 -6.27690198E-04  1.47085403E-03  7.02209961E-01
  3.51464692E-02  3.81808875E-04 -8.11741723E-05 -2.84326001E-16 -1.18204824E-02
 -2.83972337E-03 -2.76388063E-04  5.89569289E-16 -6.18957700E-03 -6.90451909E-03
 -6.98474721E-03 -3.07305700E-04  3.89939918E-17  1.83269005E-17 -7.02209960E-01
 -3.51464691E-02  3.81808876E-04  8.11741724E-05  2.50057134E-17  1.18204824E-02
 -2.83972337E-03  2.76388063E-04 -3.69062422E-16  6.18957699E-03  6.90451908E-03
  6.98474720E-03 -3.07305700E-04  5.55577827E-17  3.89308635E-18 -5.43171271E-04
  1.12711933E-03  5.43171270E-04 -1.12711932E-03 -1.71833504E-01  3.28032583E-01
  1.35602039E-01  1.74201884E-02  1.16200352E-16  2.46587930E-01 -1.11362554E-02
  8.36133450E-03  4.26500083E-17  1.27446505E-02 -1.39616003E-02 -1.65910985E-02
 -5.09742722E-03 -1.61191777E-16 -4.20915181E-17 -1.71833504E-01  3.28032583E-01
 -1.35602039E-01  1.74201884E-02  2.97611565E-17  2.46587930E-01  1.11362554E-02
  8.36133450E-03  9.46819740E-17  1.27446505E-02 -1.39616003E-02 -1.65910985E-02
  5.09742722E-03  1.03379165E-16 -2.72403691E-16  8.42980828E-02  5.04472413E-03
  8.42980828E-02  5.04472413E-03 -1.13388027E-01  2.29229140E-01 -1.98593989E-01
  5.20281021E-02 -2.15851711E-16  2.10678686E-01 -6.85725173E-02  1.53330600E-02
  1.46344504E-16  1.32131213E-02 -6.12557198E-03 -1.10116192E-02 -1.46097304E-02
 -1.70661595E-16  2.59172422E-17  1.13388027E-01 -2.29229140E-01 -1.98593989E-01
 -5.20281021E-02  1.09021513E-16 -2.10678686E-01 -6.85725173E-02 -1.53330600E-02
 -1.24187484E-16 -1.32131213E-02  6.12557198E-03  1.10116192E-02 -1.46097304E-02
 -2.08400492E-16 -2.21838845E-17  2.15971362E-01  1.17410214E-01 -2.15971362E-01
 -1.17410214E-01 -8.25953733E-03  8.16205344E-03  3.75253197E-01 -1.13665375E-01
  4.43546700E-16 -3.29642685E-03  7.35972693E-02 -2.81447180E-02 -7.77014444E-16
 -7.32082500E-03 -5.32376877E-03 -1.18388735E-03  5.93231933E-03 -3.30799936E-16
  2.17604016E-16 -8.25953734E-03  8.16205345E-03 -3.75253197E-01 -1.13665375E-01
 -6.28848800E-16 -3.29642685E-03 -7.35972693E-02 -2.81447180E-02  1.18041719E-15
 -7.32082500E-03 -5.32376877E-03 -1.18388735E-03 -5.93231933E-03 -4.29783628E-16
 -1.65696404E-16 -2.18803542E-01 -1.77902324E-01 -2.18803542E-01 -1.77902324E-01
 -5.44752151E-16  6.73582212E-16 -6.15181253E-15 -1.63320749E-14  4.16858636E-01
  5.22315820E-15 -3.56928721E-15 -1.02520556E-14  2.59182765E-01 -2.67771985E-17
 -1.25516859E-16  4.16682548E-17 -7.17628366E-16  1.63523101E-02  1.93529769E-03
 -5.28159941E-16  7.68032047E-16  5.99604305E-15 -1.63142539E-14  4.16858636E-01
  4.70582259E-15  3.92351010E-15 -1.00145607E-14  2.59182765E-01  3.56553440E-18
 -5.59031621E-17  1.56668860E-17  6.88199047E-16 -1.63523101E-02  1.93529769E-03
  2.78210005E-16 -3.85514219E-16  4.55757852E-16 -7.29556405E-16  1.32200925E-02
 -2.25973357E-02  1.45572432E-01  3.93224680E-01  1.71944212E-14 -9.74416965E-02
  7.51147290E-02  2.47577622E-01  1.06917356E-14  6.35092389E-05  2.46364664E-03
 -4.98521505E-04  1.66715475E-02  8.72934566E-16  1.46401393E-17  1.32200925E-02
 -2.25973357E-02 -1.45572432E-01  3.93224680E-01  1.72572505E-14 -9.74416965E-02
 -7.51147290E-02  2.47577622E-01  1.09130901E-14  6.35092389E-05  2.46364664E-03
 -4.98521505E-04 -1.66715475E-02 -4.40044964E-16  1.79521156E-16 -3.80695608E-03
 -1.29540335E-02 -3.80695607E-03 -1.29540335E-02  6.62142571E-02 -1.42389140E-01
  6.86274737E-02  3.44203904E-01  9.52273396E-17  2.16384259E-02  6.18234211E-01
  3.43751027E-01  2.69717905E-17  1.63254802E-02  2.16850911E-03 -3.20724329E-03
 -2.49898929E-02 -2.09490680E-16  1.68972858E-16 -6.62142571E-02  1.42389140E-01
  6.86274737E-02 -3.44203904E-01  5.61594671E-17 -2.16384259E-02  6.18234211E-01
 -3.43751027E-01 -4.23741942E-17 -1.63254802E-02 -2.16850911E-03  3.20724329E-03
 -2.49898929E-02  1.43085484E-16 -2.85750845E-16  1.36265726E-01  5.90015835E-01
 -1.36265726E-01 -5.90015835E-01 -1.65553174E-16  3.28607832E-17 -5.12843394E-16
  9.10126971E-16  4.18542356E-01  4.55678229E-15 -2.71007934E-15  5.94570038E-16
  6.84914608E-01 -5.84522220E-17 -5.05233780E-17  3.25007444E-18  5.09259432E-17
 -3.21457868E-02  4.37676007E-03 -1.17924014E-16 -8.94093860E-17  5.55237461E-16
  6.62976360E-16 -4.18542356E-01  3.89210375E-15  2.64973061E-15  1.16335537E-16
 -6.84914608E-01  4.21080290E-17 -5.07083410E-19 -4.38700864E-18 -4.86871493E-17
 -3.21457868E-02 -4.37676007E-03 -2.24582877E-16 -5.37881729E-15 -1.36327249E-16
 -4.76880981E-15  5.31725786E-02 -5.39265894E-02  2.87216669E-01 -1.12943860E-01
  1.48324479E-15 -1.20210335E+00  6.45821151E-01 -2.24421836E-01  4.85329018E-15
  8.42786028E-03  1.42803031E-03 -8.82823079E-04 -7.53735208E-03 -2.00164641E-16
  9.80859096E-17  5.31725786E-02 -5.39265894E-02 -2.87216669E-01 -1.12943860E-01
 -2.69350252E-15 -1.20210335E+00 -6.45821151E-01 -2.24421836E-01 -3.65977459E-15
  8.42786029E-03  1.42803031E-03 -8.82823079E-04  7.53735207E-03 -1.92577146E-16
 -8.13833453E-17  7.14515282E-02  1.53894770E+00  7.14515282E-02  1.53894770E+00
  8.59737185E-02 -1.61306318E-01  8.05678668E-02 -2.27288625E-01 -8.11305752E-16
 -8.82048893E-01  5.48752835E-01 -7.64565690E-01  1.31257026E-15  1.11921933E-02
 -3.89610447E-03  3.06852429E-03  2.09050308E-02 -2.53829311E-17 -1.74528340E-16
 -8.59737185E-02  1.61306318E-01  8.05678668E-02  2.27288625E-01 -2.58625395E-16
  8.82048893E-01  5.48752835E-01  7.64565690E-01 -3.28728535E-16 -1.11921933E-02
  3.89610447E-03 -3.06852429E-03  2.09050308E-02 -2.43333367E-17  7.70192380E-18
  3.30852857E-02  1.50222277E+00 -3.30852857E-02 -1.50222277E+00 -1.06179693E-01
  1.62602470E-02  1.72212612E-01 -1.50196602E-01  8.75030322E-15  5.38914514E+00
  4.40382635E+00 -3.47778295E-01 -1.10525813E-14 -4.53288960E-02  3.92651375E-03
  4.37605884E-03  1.66550647E-02 -2.86861188E-16 -4.90610106E-16  1.06179693E-01
 -1.62602470E-02  1.72212612E-01  1.50196602E-01 -1.73871002E-15 -5.38914514E+00
  4.40382635E+00  3.47778295E-01  4.75927451E-15  4.53288960E-02 -3.92651375E-03
 -4.37605884E-03  1.66550647E-02 -3.93553899E-16 -1.02792136E-16 -2.41012545E-01
  1.88115075E+00  2.41012545E-01 -1.88115075E+00 -1.33826343E-02 -6.17553830E-01
 -2.89267182E-01 -1.86887564E-01 -3.77799108E-15  2.68372483E-01  6.82956927E-01
  1.52428216E-01  3.27703264E-15 -1.03354177E-01 -1.60055912E-02 -1.02323838E-02
  1.11710481E-02 -6.24615815E-16 -3.14592861E-16 -1.33826343E-02 -6.17553830E-01
  2.89267182E-01 -1.86887564E-01 -5.30208105E-15  2.68372483E-01 -6.82956927E-01
  1.52428216E-01  4.90953730E-15 -1.03354177E-01 -1.60055912E-02 -1.02323838E-02
 -1.11710481E-02  1.52319141E-16  2.66001340E-16 -3.35868750E-01  5.45318051E-01
 -3.35868750E-01  5.45318051E-01  4.41578709E-16  2.36098650E-15 -5.86884275E-15
 -2.56767512E-14  7.02915518E-01 -2.05016809E-14 -7.35609673E-15  2.44530706E-14
 -6.50265187E-01  1.04778546E-15 -8.62803756E-17 -5.80319975E-16 -2.41304388E-15
  5.92588242E-02 -1.35988150E-03 -1.14736881E-15  1.62282190E-14  5.05391069E-15
 -2.47197009E-14  7.02915518E-01 -4.39129977E-15 -2.55073964E-14  2.07333991E-14
 -6.50265187E-01  6.79658260E-16  1.52450343E-15  9.77880300E-16  2.30637158E-15
 -5.92588242E-02 -1.35988150E-03  6.57101017E-15 -1.14315486E-14  5.07831175E-16
  9.73965399E-15  1.01654842E-02 -3.98055608E-01  1.57129511E-01  6.06572348E-01
  2.88222540E-14  4.97444908E-01 -2.53503076E-01 -5.37887564E-01 -2.84082114E-14
 -4.72792205E-02 -2.73653589E-02 -1.91339880E-02  6.81004546E-02  2.07560954E-15
 -2.77205358E-16  1.01654842E-02 -3.98055608E-01 -1.57129511E-01  6.06572348E-01
  2.32442117E-14  4.97444908E-01  2.53503076E-01 -5.37887564E-01 -1.97776901E-14
 -4.72792205E-02 -2.73653589E-02 -1.91339880E-02 -6.81004546E-02 -2.50433550E-15
 -3.99332915E-16 -1.61007460E-01  6.42228467E-02 -1.61007460E-01  6.42228468E-02
  2.53272921E-02  2.18546911E-01 -3.61356689E-01 -5.98104079E-01  6.90262064E-15
  3.31456266E-01  1.08585807E+00  4.99532628E-01 -1.02285121E-14  1.43757645E-01
 -6.11734699E-03 -1.93396136E-02  1.32068083E-02 -9.11582224E-17 -3.49234307E-16
 -2.53272921E-02 -2.18546911E-01 -3.61356689E-01  5.98104079E-01 -6.84263484E-15
 -3.31456266E-01  1.08585807E+00 -4.99532628E-01  9.89867715E-15 -1.43757645E-01
  6.11734699E-03  1.93396136E-02  1.32068083E-02 -4.58504628E-16 -9.42520012E-17
  3.33517707E-01  2.16788388E-01 -3.33517707E-01 -2.16788388E-01 -8.50361468E-16
  1.16426988E-14 -3.74976282E-15 -3.99132612E-15 -7.92772713E-01 -2.47042902E-14
  1.49509699E-14  8.47430324E-15  1.19452571E+00 -5.03137727E-16  1.77455360E-15
  2.19665504E-15  6.93440787E-16  3.48342739E-02  9.55194114E-04  7.39561346E-16
 -9.88408572E-15  4.44744455E-15  1.33718949E-14  7.92772713E-01  2.83147841E-15
 -9.10418653E-15 -2.08040668E-14 -1.19452571E+00  4.62759738E-16 -1.64130811E-15
 -9.31126671E-16  3.42732772E-16  3.48342739E-02 -9.55194114E-04 -4.05486464E-15
  1.71266564E-14  2.95401610E-15  5.72983022E-15 -1.70776860E-03  1.93810507E-01
 -4.53756686E-01  2.99623893E-01  9.75144680E-15 -1.59980867E+00  1.75715134E+00
 -5.62220407E-01 -9.97344390E-15  3.48441907E-03  5.29350866E-02  8.39909707E-03
 -6.28109951E-02  2.92908094E-16 -3.72161227E-17 -1.70776860E-03  1.93810507E-01
  4.53756686E-01  2.99623893E-01 -3.14888064E-15 -1.59980867E+00 -1.75715134E+00
 -5.62220407E-01  3.84254963E-15  3.48441907E-03  5.29350866E-02  8.39909707E-03
  6.28109951E-02 -9.19275775E-16 -5.52558923E-16  3.41456189E-01  1.25785856E+00
  3.41456189E-01  1.25785856E+00 -1.12040464E-03  5.26676539E-01 -3.86951598E-01
  5.36098370E-01  3.38045276E-16  1.98747737E+00  3.80140321E+00 -1.89009125E+00
  1.52823235E-15  1.38631507E-01  2.78939471E-02 -2.29211733E-03 -3.44495264E-02
  1.30499545E-15 -1.10102536E-15  1.12040464E-03 -5.26676539E-01 -3.86951598E-01
 -5.36098370E-01  5.40070067E-15 -1.98747737E+00  3.80140321E+00  1.89009125E+00
 -7.00356216E-15 -1.38631507E-01 -2.78939471E-02  2.29211733E-03 -3.44495264E-02
 -9.81881631E-19  1.91649483E-16  1.17919334E-01  2.27667593E+00 -1.17919334E-01
 -2.27667593E+00  1.88237268E-02 -8.22119491E-01  3.04011090E-01 -1.23443452E-01
 -4.24526078E-15  1.35183267E+00 -4.22375144E-01  2.21261187E-01  3.93999631E-15
 -1.16397891E-02 -3.99685070E-02 -7.84096583E-02 -1.35042670E-01 -1.58302340E-15
  9.97409090E-16  1.88237268E-02 -8.22119491E-01 -3.04011090E-01 -1.23443452E-01
  2.81305174E-15  1.35183267E+00  4.22375144E-01  2.21261187E-01 -1.65100465E-15
 -1.16397891E-02 -3.99685070E-02 -7.84096583E-02  1.35042670E-01  5.77046732E-16
  1.60120815E-15  6.83252820E-01 -1.25049013E+00  6.83252820E-01 -1.25049013E+00
 -1.82222905E-02 -4.95973198E-01  4.98363481E-01  1.82567697E-02 -9.81229184E-15
  4.79642212E+00  2.98227612E+00 -8.19785288E-01  1.35577693E-14 -1.66114512E-02
  3.08234383E-02 -7.08899355E-02 -1.01444738E-01 -1.46091669E-15 -1.60954299E-15
  1.82222905E-02  4.95973198E-01  4.98363481E-01 -1.82567697E-02  3.58094531E-15
 -4.79642212E+00  2.98227612E+00  8.19785288E-01 -7.42039785E-15  1.66114512E-02
 -3.08234383E-02  7.08899355E-02 -1.01444738E-01  2.04035967E-15 -1.93633657E-15
  8.57562259E-01  2.55562136E-01 -8.57562259E-01 -2.55562136E-01  5.01356304E-03
 -1.30253956E+00 -6.07160740E-01  1.12727917E-01 -1.28145845E-14  6.52516888E+00
  3.82759167E+00 -4.40812488E-01  1.80394552E-14  1.85140470E-01 -1.25016916E-01
 -1.31976037E-01  3.50643362E-03 -3.15138277E-15 -4.51194354E-15 -5.01356304E-03
  1.30253956E+00 -6.07160740E-01 -1.12727917E-01  5.29244486E-15 -6.52516888E+00
  3.82759167E+00  4.40812488E-01 -9.56379997E-15 -1.85140470E-01  1.25016916E-01
  1.31976037E-01  3.50643362E-03  2.90712958E-15 -2.75304289E-15 -1.32502752E-01
  8.15891185E-01  1.32502752E-01 -8.15891185E-01  2.19629201E-16 -1.06616796E-14
  1.11319956E-15 -2.18726451E-15 -2.06987241E-01  3.78246995E-14  1.60212881E-14
  1.00173982E-15  6.00571892E-02  3.05217392E-15 -4.60261912E-16 -1.87105220E-15
  2.84012220E-15  5.90972965E-01 -1.64981587E-01  5.61845278E-17  4.06299650E-15
  9.46023087E-17 -2.07340934E-15 -2.06987241E-01 -2.91944134E-14  1.47277467E-14
  1.21584473E-15  6.00571892E-02 -1.68305541E-15  2.71982507E-16 -2.45912203E-15
 -4.19561492E-15 -5.90972965E-01 -1.64981587E-01  5.38970623E-15 -5.41154053E-15
  3.37552937E-15 -3.42577303E-15  2.30815917E-15 -6.97988995E-14  4.49323626E-14
 -2.28166585E-13 -5.23985653E-02  3.01492684E-13 -1.19696075E-13  9.58599159E-14
  1.31342616E-02 -1.21837610E-16  2.50588144E-12 -2.49519625E-12  5.95474594E-13
  1.50335717E-01  6.48871722E-01  2.36726234E-15 -4.41792547E-14 -5.04775842E-14
 -2.29386655E-13 -5.23985653E-02  1.35099545E-13  2.29190071E-13  1.13166449E-13
  1.31342616E-02 -4.81920095E-15  2.50610406E-12 -2.49237907E-12 -5.96219508E-13
 -1.50335717E-01  6.48871722E-01  4.73643068E-14 -2.25367266E-13  4.24441089E-14
 -2.51815826E-13  5.03758748E-04 -1.36525397E-02  1.08868847E-02 -5.20265380E-02
  2.31214001E-13  4.99948306E-02 -3.94808613E-02  2.38852211E-02 -5.57420886E-14
 -1.94616882E-04  5.66715576E-01 -5.63970428E-01  1.34925235E-01 -6.65703171E-13
 -2.87115900E-12  5.03758748E-04 -1.36525397E-02 -1.08868847E-02 -5.20265380E-02
  2.33035522E-13  4.99948306E-02  3.94808613E-02  2.38852211E-02 -6.01064136E-14
 -1.94616882E-04  5.66715576E-01 -5.63970428E-01 -1.34925235E-01  6.67682839E-13
 -2.86660576E-12  1.06513347E-02 -5.45494891E-02  1.06513347E-02 -5.45494891E-02
 -1.29772220E-03 -1.81544803E-01 -9.59435821E-02 -1.96202084E-01  2.26044997E-15
 -3.49964364E-01  6.56542026E-01 -8.09701989E-02 -1.12501500E-15  1.43473599E-01
 -2.18145264E-01  4.23392091E-02  5.96261560E-01 -3.73839692E-15  4.94483430E-15
 -1.29772220E-03 -1.81544803E-01  9.59435821E-02 -1.96202084E-01  4.93731357E-16
 -3.49964364E-01 -6.56542026E-01 -8.09701989E-02  3.19126695E-16  1.43473599E-01
 -2.18145264E-01  4.23392091E-02 -5.96261560E-01  3.41558833E-15  1.55084027E-16
  4.60994833E-01  2.45507500E-01  4.60994833E-01  2.45507500E-01  6.29729847E-17
 -2.45438506E-15 -1.50255593E-15 -2.38932565E-18 -8.01385837E-03  1.94252759E-14
  8.60286778E-15 -1.18061787E-15 -1.45299500E-02 -8.14898071E-16  1.04300469E-14
 -8.78221525E-15 -1.30632071E-15 -2.94324398E-02  7.51472741E-01  1.32137822E-16
  2.58455085E-16 -3.93495377E-15 -2.80000297E-16  8.01385837E-03 -1.02105038E-14
  1.78948342E-14  3.50778511E-15  1.45299500E-02 -1.72242616E-15 -3.49870067E-15
  7.15396707E-15  1.56395098E-15 -2.94324398E-02 -7.51472741E-01 -2.32136062E-15
  2.25148564E-15  7.86564234E-16 -1.03394948E-14 -1.25582442E-03 -3.29615145E-02
  4.72273872E-02  9.51914341E-03 -9.73707646E-16  9.73866772E-01  8.62330913E-01
 -2.59780560E-01  2.31394300E-15  4.59715217E-02 -6.60613757E-01  6.39566771E-01
 -7.01153887E-02  7.68059007E-16  9.45977808E-15  1.25582442E-03  3.29615145E-02
  4.72273872E-02 -9.51914341E-03  8.14540521E-16 -9.73866772E-01  8.62330913E-01
  2.59780560E-01 -1.63042194E-15 -4.59715217E-02  6.60613757E-01 -6.39566771E-01
 -7.01153887E-02  1.82989354E-15 -8.15837107E-15  1.34947939E-01  2.92401098E-01
 -1.34947939E-01 -2.92401098E-01  8.72956417E-02  8.32737300E-02  3.33827782E-01
 -8.27503935E-02 -5.03197619E-16 -2.02669159E-01 -3.80304532E-01  1.77345387E-02
  3.85677260E-17 -5.71902586E-01  5.10517258E-01  5.82203016E-01  1.57075694E-01
 -1.52955481E-15 -1.94439372E-15  8.72956417E-02  8.32737300E-02 -3.33827782E-01
 -8.27503935E-02  7.17521162E-16 -2.02669159E-01  3.80304532E-01  1.77345387E-02
  9.43390987E-17 -5.71902586E-01  5.10517258E-01  5.82203016E-01 -1.57075694E-01
 -1.49925740E-15  3.51916170E-16  4.06890310E-01 -2.74988692E-01  4.06890310E-01
 -2.74988692E-01  4.43904921E-16 -6.98714754E-15  2.42417351E-15  1.07312167E-15
  2.18483333E-01  1.76365277E-14  1.83170170E-15  4.36741023E-15  2.99408467E-01
  4.68317759E-16  1.63956689E-15  1.82366386E-15  8.64963099E-15  9.81450522E-01
  2.26451528E-02  3.73078578E-16  1.30862492E-16 -1.05227256E-15 -2.21046355E-15
 -2.18483333E-01 -8.82058870E-15  8.50471614E-15 -1.72434126E-15 -2.99408467E-01
 -7.44645350E-16 -1.15501739E-15  2.75917483E-15  9.48141654E-15  9.81450522E-01
 -2.26451528E-02  5.44979841E-15 -7.15201503E-15 -1.00718582E-15 -2.77994910E-15
 -7.49844788E-04  1.22336445E-01  5.13826064E-01  2.24240024E-01 -4.07488290E-15
  2.05840689E+00  1.51895131E+00 -4.78639710E-02  6.95975916E-17  5.29164626E-01
 -2.16290085E-01 -1.27819398E-01  9.24088848E-01 -8.24306964E-15  1.69697649E-16
  7.49844788E-04 -1.22336445E-01  5.13826064E-01 -2.24240024E-01  2.78926270E-15
 -2.05840689E+00  1.51895131E+00  4.78639710E-02  8.40631494E-16 -5.29164626E-01
  2.16290085E-01  1.27819398E-01  9.24088848E-01 -8.24780232E-15 -3.69182227E-16
  2.91715221E-01  3.10559176E-01 -2.91715221E-01 -3.10559176E-01 -6.46677051E-02
  8.62868668E-01  9.00664294E-01 -5.41198549E-02 -2.87121548E-16  2.00881755E+00
  1.09630110E+00 -9.96832477E-02  3.28283312E-15  1.03965743E+00 -6.34994369E-01
 -7.19568831E-01 -4.33504111E-01  3.14344927E-15 -3.54651121E-16  6.46677051E-02
 -8.62868668E-01  9.00664294E-01  5.41198549E-02  5.89049145E-16 -2.00881755E+00
  1.09630110E+00  9.96832477E-02 -3.21120017E-15 -1.03965743E+00  6.34994369E-01
  7.19568831E-01 -4.33504111E-01  4.60281395E-15  5.83547113E-16 -4.44525397E-01
  3.75384203E-01  4.44525397E-01 -3.75384203E-01 -3.01916176E-01  2.38398714E+00
  1.64626406E-01 -3.96073762E-02 -5.29977037E-16  6.30967808E-01 -1.49008315E-01
  4.85559158E-02  2.27143173E-15 -1.37786431E+00 -1.20524997E+00 -1.19007227E+00
  3.88275326E-02 -1.90003874E-16  1.25514220E-16 -3.01916176E-01  2.38398714E+00
 -1.64626406E-01 -3.96073762E-02 -2.55270017E-16  6.30967808E-01  1.49008315E-01
  4.85559158E-02 -1.16921456E-15 -1.37786431E+00 -1.20524997E+00 -1.19007227E+00
 -3.88275326E-02  1.89964485E-15 -7.65971059E-16  2.32558773E-01 -3.36011447E-01
  2.32558773E-01 -3.36011447E-01 -3.50176293E-01  1.79421035E+00 -6.19188744E-01