Title Card Required                                                     
SP        RB3LYP                                                      6-31G(d)            
Number of atoms                            I                4
Info1-9                                    I   N=           9
          14          13           0           0           0         110
           1          18        -502
Full Title                                 C   N=           2
Title Card Required     
Route                                      C   N=           2
# B3LYP/6-31G* nosymm   
Charge                                     I                0
Multiplicity                               I                1
Number of electrons                        I               14
Number of alpha electrons                  I                7
Number of beta electrons                   I                7
Number of basis functions                  I               34
Number of independent functions            I               34
Number of point charges in /Mol/           I                0
Number of translation vectors              I                0
Atomic numbers                             I   N=           4
           6           6           1           1
Nuclear charges                            R   N=           4
  6.00000000E+00  6.00000000E+00  1.00000000E+00  1.00000000E+00
Current cartesian coordinates              R   N=          12
  3.36321456E+00 -6.00384963E-01  0.00000000E+00  2.20155592E+00 -2.61243676E+00
  0.00000000E+00  5.02740248E+00  5.37111660E-01  0.00000000E+00  2.04854889E+00
 -4.62241408E+00  0.00000000E+00
Number of symbols in /Mol/                 I                0
Force Field                                I                0
Atom Types                                 C   N=           4
                                                
Int Atom Types                             I   N=           4
           0           0           0           0
MM charges                                 R   N=           4
  0.00000000E+00  0.00000000E+00  0.00000000E+00  0.00000000E+00
Integer atomic weights                     I   N=           4
          12          12           1           1
Real atomic weights                        R   N=           4
  1.20000000E+01  1.20000000E+01  1.00782504E+00  1.00782504E+00
Atom fragment info                         I   N=           4
           0           0           0           0
Atom residue num                           I   N=           4
           0           0           0           0
Nuclear spins                              I   N=           4
           0           0           1           1
Nuclear ZEff                               R   N=           4
 -3.60000000E+00 -3.60000000E+00 -1.00000000E+00 -1.00000000E+00
Nuclear ZNuc                               R   N=           4
  6.00000000E+00  6.00000000E+00  1.00000000E+00  1.00000000E+00
Nuclear QMom                               R   N=           4
  0.00000000E+00  0.00000000E+00  0.00000000E+00  0.00000000E+00
Nuclear GFac                               R   N=           4
  0.00000000E+00  0.00000000E+00  2.79284600E+00  2.79284600E+00
MicOpt                                     I   N=           4
          -1          -1          -1          -1
Number of residues                         I                0
Number of secondary structures             I                0
Number of contracted shells                I               12
Number of primitive shells                 I               30
Pure/Cartesian d shells                    I                1
Pure/Cartesian f shells                    I                0
Highest angular momentum                   I                2
Largest degree of contraction              I                6
Shell types                                I   N=          12
           0          -1          -1           2           0          -1
          -1           2           0           0           0           0
Number of primitives per shell             I   N=          12
           6           3           1           1           6           3
           1           1           3           1           3           1
Shell to atom map                          I   N=          12
           1           1           1           1           2           2
           2           2           3           3           4           4
Primitive exponents                        R   N=          30
  3.04752488E+03  4.57369518E+02  1.03948685E+02  2.92101553E+01  9.28666296E+00
  3.16392696E+00  7.86827235E+00  1.88128854E+00  5.44249258E-01  1.68714478E-01
  8.00000000E-01  3.04752488E+03  4.57369518E+02  1.03948685E+02  2.92101553E+01
  9.28666296E+00  3.16392696E+00  7.86827235E+00  1.88128854E+00  5.44249258E-01
  1.68714478E-01  8.00000000E-01  1.87311370E+01  2.82539436E+00  6.40121692E-01
  1.61277759E-01  1.87311370E+01  2.82539436E+00  6.40121692E-01  1.61277759E-01
Contraction coefficients                   R   N=          30
  1.83473713E-03  1.40373228E-02  6.88426223E-02  2.32184443E-01  4.67941348E-01
  3.62311985E-01 -1.19332420E-01 -1.60854152E-01  1.14345644E+00  1.00000000E+00
  1.00000000E+00  1.83473713E-03  1.40373228E-02  6.88426223E-02  2.32184443E-01
  4.67941348E-01  3.62311985E-01 -1.19332420E-01 -1.60854152E-01  1.14345644E+00
  1.00000000E+00  1.00000000E+00  3.34946043E-02  2.34726953E-01  8.13757326E-01
  1.00000000E+00  3.34946043E-02  2.34726953E-01  8.13757326E-01  1.00000000E+00
P(S=P) Contraction coefficients            R   N=          30
  0.00000000E+00  0.00000000E+00  0.00000000E+00  0.00000000E+00  0.00000000E+00
  0.00000000E+00  6.89990666E-02  3.16423961E-01  7.44308291E-01  1.00000000E+00
  0.00000000E+00  0.00000000E+00  0.00000000E+00  0.00000000E+00  0.00000000E+00
  0.00000000E+00  0.00000000E+00  6.89990666E-02  3.16423961E-01  7.44308291E-01
  1.00000000E+00  0.00000000E+00  0.00000000E+00  0.00000000E+00  0.00000000E+00
  0.00000000E+00  0.00000000E+00  0.00000000E+00  0.00000000E+00  0.00000000E+00
Coordinates of each shell                  R   N=          36
  3.36321456E+00 -6.00384963E-01  0.00000000E+00  3.36321456E+00 -6.00384963E-01
  0.00000000E+00  3.36321456E+00 -6.00384963E-01  0.00000000E+00  3.36321456E+00
 -6.00384963E-01  0.00000000E+00  2.20155592E+00 -2.61243676E+00  0.00000000E+00
  2.20155592E+00 -2.61243676E+00  0.00000000E+00  2.20155592E+00 -2.61243676E+00
  0.00000000E+00  2.20155592E+00 -2.61243676E+00  0.00000000E+00  5.02740248E+00
  5.37111660E-01  0.00000000E+00  5.02740248E+00  5.37111660E-01  0.00000000E+00
  2.04854889E+00 -4.62241408E+00  0.00000000E+00  2.04854889E+00 -4.62241408E+00
  0.00000000E+00
Num ILSW                                   I              100
ILSW                                       I   N=         100
           0           1           0           0           2           0
           0           0           0           0         402          -1
           5           0           0           0           0           0
           0           0           1           0           0           0
           1           1           0           0           0           0
           0           0      100000           0          -1           0
           0           0           0           0           0           0
           0           0           0           1           0           0
           0 -2000000000           1           0           0           0
           0           0           4          52           0           0
           0           0           5           0           0           0
           0           0           0           0           0           1
           0           0           0           0           0           0
           0           0           0           0           0           0
           0           0           0           0           0           0
           0           0           0           0           0           0
           0           0           0           0
Num RLSW                                   I               52
RLSW                                       R   N=          52
  8.00000000E-01  7.20000000E-01  1.00000000E+00  8.10000000E-01  2.00000000E-01
  0.00000000E+00  0.00000000E+00  1.00000000E+00  0.00000000E+00  0.00000000E+00
  0.00000000E+00  0.00000000E+00  1.00000000E+00  0.00000000E+00  0.00000000E+00
  0.00000000E+00  0.00000000E+00  1.00000000E+00  0.00000000E+00  0.00000000E+00
  0.00000000E+00  0.00000000E+00  1.00000000E+00  0.00000000E+00  0.00000000E+00
  0.00000000E+00  0.00000000E+00  1.00000000E+00  0.00000000E+00  0.00000000E+00
  0.00000000E+00  0.00000000E+00  1.00000000E+00  0.00000000E+00  0.00000000E+00
  0.00000000E+00  0.00000000E+00  0.00000000E+00  1.00000000E+00  1.00000000E+00
  0.00000000E+00  1.00000000E+00  0.00000000E+00  0.00000000E+00  0.00000000E+00
  0.00000000E+00  0.00000000E+00  0.00000000E+00  0.00000000E+00  0.00000000E+00
  0.00000000E+00  0.00000000E+00
MxBond                                     I                2
NBond                                      I   N=           4
           2           2           1           1
IBond                                      I   N=           8
           2           3           1           4           1           0
           2           0
RBond                                      R   N=           8
  3.00000000E+00  1.00000000E+00  3.00000000E+00  1.00000000E+00  1.00000000E+00
  0.00000000E+00  1.00000000E+00  0.00000000E+00
Virial Ratio                               R      2.011225693117202E+00
SCF Energy                                 R     -7.730820360347954E+01
Total Energy                               R     -7.730820360347954E+01
RMS Density                                R      4.613419010108478E-09
Job Status                                 I                1
Nuclear derivative order                   I                0
External E-field                           R   N=          35
  0.00000000E+00  0.00000000E+00  0.00000000E+00  0.00000000E+00  0.00000000E+00
  0.00000000E+00  0.00000000E+00  0.00000000E+00  0.00000000E+00  0.00000000E+00
  0.00000000E+00  0.00000000E+00  0.00000000E+00  0.00000000E+00  0.00000000E+00
  0.00000000E+00  0.00000000E+00  0.00000000E+00  0.00000000E+00  0.00000000E+00
  0.00000000E+00  0.00000000E+00  0.00000000E+00  0.00000000E+00  0.00000000E+00
  0.00000000E+00  0.00000000E+00  0.00000000E+00  0.00000000E+00  0.00000000E+00
  0.00000000E+00  0.00000000E+00  0.00000000E+00  0.00000000E+00  0.00000000E+00
IOpCl                                      I                0
IROHF                                      I                0
Alpha Orbital Energies                     R   N=          34
 -1.01970064E+01 -1.01950147E+01 -7.41702797E-01 -5.62143381E-01 -4.84515139E-01
 -2.79193604E-01 -2.78556772E-01 -1.37793979E-02  4.58061131E-02  1.49411598E-01
  1.54781485E-01  4.17075388E-01  4.73765068E-01  5.35749608E-01  5.37755656E-01
  6.19636820E-01  6.49764011E-01  7.12541988E-01  8.47562273E-01  9.18687404E-01
  1.09248405E+00  1.17010251E+00  1.49285621E+00  1.55213134E+00  1.55222866E+00
  1.73815858E+00  1.92065035E+00  1.94809042E+00  2.30211550E+00  2.47079967E+00
  2.63442659E+00  3.06145008E+00  4.08964340E+00  4.22663855E+00
Alpha MO coefficients                      R   N=        1156
  7.01553242E-01  3.38417274E-02  2.35289437E-04  3.13346934E-04  1.28460554E-16
 -4.27778976E-03 -4.77818685E-04 -4.37325238E-04 -1.15760958E-16 -6.95147419E-03
 -6.63428764E-03 -7.34468791E-03  5.54955976E-04 -4.70769961E-16  9.11199741E-17
  7.01552961E-01  3.38417093E-02 -1.53721746E-04 -3.60438805E-04 -6.55365695E-17
 -4.27778416E-03  1.39826768E-04  6.32467237E-04  5.26693848E-17 -7.12979610E-03
 -6.45595564E-03 -7.34468389E-03  4.36072113E-04 -5.90287784E-17 -2.70221039E-16
 -6.27690026E-04  1.47085325E-03 -6.27689948E-04  1.47085310E-03  7.02209820E-01
  3.51464650E-02 -2.61204783E-04 -2.90070188E-04 -9.89709853E-17 -1.18204815E-02
  1.18050453E-03  2.59746730E-03  1.06683461E-16 -6.49530397E-03 -6.59879117E-03
 -6.98474690E-03  5.11124210E-04  1.22938753E-16  9.63776882E-17 -7.02210101E-01
 -3.51464740E-02 -1.20605012E-04 -3.71245317E-04  8.74078812E-17  1.18204833E-02
  1.65922012E-03  2.32108032E-03 -7.71410657E-17  6.95626332E-03  6.13783331E-03
  6.98474850E-03 -2.03819054E-04 -7.57593103E-17  2.28988053E-16 -5.43171069E-04
  1.12711785E-03  5.43171386E-04 -1.12711852E-03 -1.71833507E-01  3.28032583E-01
 -5.27146849E-02 -1.26144920E-01  1.06047306E-16  2.46587959E-01  1.28092539E-02
  5.46359691E-03 -1.68112505E-16 -3.46196893E-03  2.24501353E-03 -1.65911054E-02
  1.59018409E-02  5.19371250E-17  1.96672914E-16 -1.71833506E-01  3.28032586E-01
  8.28873555E-02  1.08724723E-01 -9.07736768E-17  2.46587907E-01  1.67300084E-03
 -1.38249630E-02  2.58290026E-16 -1.11081092E-02  9.89115924E-03 -1.65910987E-02
  1.08044117E-02  2.59466750E-16 -1.50886006E-16  8.42980769E-02  5.04471510E-03
  8.42980776E-02  5.04471306E-03 -1.13388027E-01  2.29229157E-01  1.44354674E-01
  1.45973376E-01 -4.84247252E-18  2.10678599E-01  4.75650756E-02  5.17190547E-02
  1.19384974E-16  9.66640363E-03 -2.57885493E-03 -1.10116178E-02  1.69742084E-02
 -5.12524793E-17 -1.32287534E-16  1.13388026E-01 -2.29229152E-01  5.42393397E-02
  1.98001500E-01 -6.68030348E-17 -2.10678598E-01  2.10074810E-02  6.70520980E-02
 -1.68241486E-16  1.22481907E-02 -1.93357473E-02  1.10116127E-02 -2.36447716E-03
 -2.89520232E-17 -2.43163816E-16  2.15971359E-01  1.17410208E-01 -2.15971364E-01
 -1.17410212E-01 -8.25953380E-03  8.16203434E-03 -2.86063714E-01 -2.68146117E-01
  2.56412413E-16 -3.29641896E-03 -6.11726742E-02 -4.96647515E-02  2.62217186E-16
 -1.02722738E-02 -2.37231266E-03 -1.18388854E-03 -3.96468352E-03  1.64390300E-17
  3.02704702E-17 -8.25953700E-03  8.16205184E-03  8.91895064E-02  3.81811490E-01
  1.78282405E-16 -3.29644842E-03  1.24245790E-02  7.78094538E-02 -2.34717540E-17
 -1.37379907E-03 -1.12707993E-02 -1.18389100E-03  1.96763297E-03  6.05948183E-17
  1.53520794E-17 -2.18803542E-01 -1.77902319E-01 -2.18803538E-01 -1.77902319E-01
 -1.27958963E-15  2.36081188E-15 -2.73955453E-14  3.27537205E-14  4.16858622E-01
  1.87192429E-15 -1.35815983E-14  2.42388496E-14  2.59182788E-01  1.02566742E-15
 -1.42090869E-15  1.34685453E-16  8.44876827E-16 -6.50013748E-03 -1.51291604E-02
 -1.32459119E-15  1.86512274E-15 -4.18735887E-14  7.10378346E-15  4.16858622E-01
  1.65767598E-14 -2.30190098E-14  1.31638392E-14  2.59182766E-01 -1.43264645E-15
  1.25892251E-15  9.51093384E-18 -5.71724853E-16  9.85217896E-03  1.31938615E-02
  3.64814864E-16 -9.07834297E-16  5.16306549E-16  5.65495510E-15  1.32200903E-02
 -2.25973374E-02  2.67756340E-01 -3.22681732E-01  4.19577171E-14 -9.74415646E-02
  1.76851160E-01 -1.88840135E-01  2.64176000E-14 -1.06400688E-02  1.31671810E-02
 -4.98547458E-04 -9.53583479E-03 -7.29157463E-16 -1.56716346E-15  1.32200946E-02
 -2.25973485E-02  4.13328746E-01 -7.05429158E-02  4.26148621E-14 -9.74417515E-02
  2.51965874E-01 -5.87375795E-02  2.58069546E-14  1.43672646E-02 -1.18401160E-02
 -4.98519642E-04  7.13570198E-03  1.02735185E-15  1.33323918E-15 -3.80696714E-03
 -1.29540897E-02 -3.80695850E-03 -1.29540439E-02 -6.62142622E-02  1.42389076E-01
 -2.63775620E-01  2.31535089E-01 -3.13576138E-17 -2.16380021E-02  1.14199662E-02
  7.07281843E-01  9.14146068E-17 -2.44501677E-02  5.95619833E-03  3.20724956E-03
 -1.95734347E-02  6.11520279E-17 -1.43429938E-16  6.62142681E-02 -1.42389106E-01
  3.32403088E-01 -1.12668815E-01 -3.63396310E-18  2.16379826E-02  6.06814050E-01
  3.63530880E-01 -1.36373835E-16 -1.30346675E-02  3.15286639E-02 -3.20722776E-03
 -5.41647179E-03 -1.41275986E-16 -7.66409186E-18 -1.36265744E-01 -5.90015844E-01
  1.36265746E-01  5.90015879E-01 -6.06696772E-17 -2.16045539E-16 -1.56412277E-16
  2.75407747E-16  4.18542369E-01  2.33729259E-15 -1.20132846E-15 -1.20206163E-15
  6.84914582E-01 -3.94852052E-17  5.16843149E-18 -5.52251064E-18 -2.77829655E-17
  1.98632816E-02  2.56506954E-02  2.91707497E-17 -2.98461060E-16 -4.46048572E-17
 -1.23321962E-16 -4.18542395E-01 -1.45393325E-15 -1.14684585E-16 -1.74010469E-15
 -6.84914568E-01 -1.08349946E-17 -3.50590153E-17 -3.47243587E-17 -3.31243230E-17
  1.22824984E-02  3.00274552E-02 -2.95253543E-16  5.68118603E-16 -4.31661466E-17
 -8.38261210E-16  5.31726905E-02 -5.39267618E-02 -2.41420856E-01 -1.92264986E-01
  3.37056663E-16 -1.20210461E+00 -5.17266669E-01 -4.47086583E-01  6.70284659E-16
  8.83098555E-03  1.02493218E-03 -8.82813348E-04  7.26859024E-03 -2.26390520E-16
  1.32724345E-16  5.31724665E-02 -5.39263718E-02  4.57963191E-02  3.05208641E-01
 -9.90817992E-17 -1.20210206E+00  1.28556040E-01  6.71507424E-01 -5.36448799E-16
 -2.47504816E-03  1.23309264E-02 -8.82831935E-04 -2.68777635E-04  1.20436982E-16
 -7.22604465E-17  7.14515929E-02  1.53894951E+00  7.14514943E-02  1.53894581E+00
 -8.59736426E-02  1.61306283E-01  2.37121419E-01 -4.38707322E-02  3.02530982E-16
  8.82046801E-01  9.36509155E-01  9.29507245E-02  7.62420114E-16  1.58028198E-02
 -2.30989106E-02 -3.06853076E-03  2.90837743E-03  1.80682065E-17 -2.48107241E-16
  8.59737693E-02 -1.61306440E-01 -1.56553825E-01  1.83418549E-01 -3.87841317E-16
 -8.82049827E-01 -3.87756499E-01  8.57517863E-01 -5.82502755E-16  1.55547320E-02
 -8.25864819E-03  3.06850340E-03  1.79966763E-02 -2.38383109E-16  2.09993052E-16
 -3.30851746E-02 -1.50222085E+00  3.30853511E-02  1.50222476E+00 -1.06179700E-01
  1.62602453E-02 -2.16180225E-01 -7.40421989E-02 -8.23883441E-15  5.38914547E+00
 -2.50309857E+00 -3.63993679E+00  8.80689101E-15 -2.08786100E-02 -2.05237664E-02
  4.37607879E-03 -3.29552489E-02  8.36528728E-16 -4.65063561E-16  1.06179696E-01
 -1.62604936E-02  4.39675071E-02 -2.24238724E-01  5.61986157E-15 -5.38914547E+00
 -1.90072815E+00 -3.98771503E+00 -7.46213543E-15 -4.10397386E-03  4.55063154E-02
 -4.37608787E-03  1.63001884E-02 -5.39663143E-16 -8.22816852E-16 -2.41012573E-01
  1.88115115E+00  2.41012509E-01 -1.88115087E+00  1.33826151E-02  6.17553567E-01
  1.72163596E-02 -3.43956988E-01  9.61497207E-15 -2.68370973E-01  2.09470692E-01
  6.67671865E-01 -8.82224259E-15  4.62209452E-02  7.31387426E-02  1.02323820E-02
  4.92597473E-02 -2.24637709E-16 -7.42054274E-16  1.33826671E-02  6.17553419E-01
  3.06483582E-01  1.57068695E-01  8.37016182E-15 -2.68373132E-01 -4.73486147E-01
 -5.15244816E-01 -8.19519303E-15  2.94644792E-02  8.98952178E-02  1.02323739E-02
  3.80887909E-02  6.05857825E-16  9.97126058E-17  3.35868461E-01 -5.45317454E-01
  3.35868585E-01 -5.45318405E-01 -1.81391946E-16 -1.56577211E-14  9.20856332E-15
 -4.51761585E-15  7.02915694E-01  2.24307582E-14 -1.54488264E-14 -5.97720255E-15
 -6.50265418E-01 -2.55169865E-15 -8.30900558E-16 -4.95862007E-16 -1.43442905E-15
 -3.08070921E-02 -5.06396884E-02  1.36758266E-16 -1.48869210E-14  7.92798389E-15
 -6.55247929E-15  7.02915360E-01  1.00998606E-15 -8.84595961E-15  2.29590967E-15
 -6.50264945E-01 -2.28934742E-16 -3.42050450E-15 -1.47829582E-16 -1.25954414E-16
  2.84517356E-02  5.19995833E-02 -8.82838213E-15  1.31515801E-14 -8.55427807E-15
  8.08277934E-15  1.01654617E-02 -3.98056067E-01  4.46742342E-01 -4.39363879E-01
 -1.81997967E-14  4.97445249E-01 -3.39073261E-01  4.88482808E-01  1.90803648E-14
 -8.34192144E-02  8.77450131E-03 -1.91339938E-02 -4.40072163E-02  6.09389623E-16
  9.59683752E-16  1.01654736E-02 -3.98056277E-01  6.03871556E-01 -1.67208219E-01
 -1.06896251E-14  4.97444853E-01 -5.92575477E-01  4.94039420E-02  7.72775428E-15
  1.87314884E-02 -9.33762020E-02 -1.91339748E-02  2.40932350E-02 -6.28085321E-16
 -1.23128713E-15 -1.61007871E-01  6.42237350E-02 -1.61007879E-01  6.42233369E-02
 -2.53272841E-02 -2.18546966E-01  3.37294990E-01 -6.11996122E-01  4.83046785E-15
 -3.31456965E-01  1.10321530E-01  1.19014757E+00 -7.27957992E-15 -2.14463378E-02
 -1.16194030E-01  1.93395765E-02 -6.83340884E-02  3.60950272E-16 -5.86115122E-17
  2.53272775E-02  2.18546931E-01 -6.98651597E-01 -1.38920765E-02 -4.80534103E-15
  3.31457015E-01  9.75537191E-01  6.90615095E-01  7.55436682E-15  4.12565264E-02
  9.63837790E-02 -1.93396182E-02  8.15409077E-02  3.46364711E-16  3.74063979E-16
 -3.33517755E-01 -2.16788649E-01  3.33517643E-01  2.16788786E-01  9.34205311E-16
 -4.03012611E-15  1.13029123E-14  7.99743681E-16 -7.92772560E-01  1.32946994E-14
 -3.80249825E-14 -1.42901237E-14  1.19452561E+00  1.88164688E-15  1.08936048E-15
 -1.21575138E-15  2.17313995E-15 -1.65899243E-02 -3.06449814E-02 -1.00452966E-15
  1.00086690E-14 -1.14067875E-14  6.27315044E-15  7.92772839E-01 -3.55397227E-14
  1.67208431E-14 -2.05224186E-14 -1.19452587E+00  3.29338182E-16 -1.44722770E-15
  1.30998149E-15 -1.93349676E-15 -1.82443322E-02 -2.96897641E-02  1.04406307E-14
  1.03542554E-14 -3.38286894E-15  9.24386670E-16 -1.70776631E-03  1.93810515E-01
  4.86360202E-01  2.43152903E-01  6.23984113E-15 -1.59980911E+00 -1.36547251E+00
 -1.24062723E+00 -8.42706525E-15  8.76806625E-02 -3.12611830E-02  8.39909966E-03
  6.68014954E-03  2.65457686E-16  4.46544422E-16 -1.70777005E-03  1.93810587E-01
  3.26035557E-02 -5.42776805E-01 -5.25381091E-15 -1.59980844E+00  3.91678669E-01
  1.80284841E+00  7.62362952E-15 -6.53580657E-03  6.29553463E-02  8.39912430E-03
 -5.61308417E-02  3.74107784E-16 -5.36669382E-16  3.41456117E-01  1.25785844E+00
  3.41456156E-01  1.25785888E+00  1.12039334E-03 -5.26676561E-01 -6.57750781E-01
 -6.70608932E-02 -8.91966263E-15 -1.98747695E+00  3.53756872E+00  2.34706602E+00
  1.64016066E-14 -8.14154577E-02 -8.51099772E-02  2.29215042E-03 -7.25935556E-02
 -1.95642181E-15 -9.72420180E-16 -1.12037696E-03  5.26676157E-01  2.70799071E-01
 -6.03159104E-01  8.98116170E-15  1.98747776E+00  2.63834243E-01  4.23715689E+00
 -1.56662781E-14  2.97411601E-02  1.36784286E-01 -2.29216876E-03  3.81440585E-02
  1.20784632E-16  1.91080111E-15 -1.17919135E-01 -2.27667613E+00  1.17919453E-01
  2.27667534E+00  1.88237282E-02 -8.22119419E-01 -2.58910459E-01 -2.01559638E-01
  2.01378409E-15  1.35183331E+00  4.02804343E-01  2.55156395E-01 -2.18222928E-15
  6.83956700E-02 -1.20003926E-01 -7.84096784E-02  8.16857272E-02  6.15172378E-16
  2.78687635E-16  1.88237235E-02 -8.22119498E-01  4.51003712E-02  3.25003168E-01
  5.84102532E-16  1.35183183E+00 -1.95699058E-02 -4.76419203E-01 -8.74702986E-17
 -1.34168333E-01  8.25599972E-02 -7.84096612E-02 -5.33569688E-02  7.97991567E-17
  2.39090863E-16  6.83252901E-01 -1.25048954E+00  6.83252827E-01 -1.25049060E+00
 -1.82222910E-02 -4.95973369E-01 -2.33370801E-01 -4.40723751E-01  8.21258081E-15
  4.79642350E+00 -2.20109354E+00 -2.17283491E+00 -1.35697236E-14  9.50482454E-02
 -8.08362510E-02 -7.08899702E-02  2.70049573E-02  4.47123300E-15 -2.27263283E-15
  1.82222906E-02  4.95973410E-01 -2.64992530E-01 -4.22466947E-01 -9.20607136E-15
 -4.79642357E+00 -7.81183480E-01 -2.99262033E+00  1.38216178E-14  5.71188637E-02
 -7.13308540E-02  7.08899577E-02  7.44397844E-02 -1.24070110E-16 -5.70674572E-16
  8.57562231E-01  2.55562392E-01 -8.57562251E-01 -2.55562316E-01  5.01356364E-03
 -1.30253954E+00  4.01205563E-01  4.69452730E-01  7.54740682E-15  6.52516818E+00
 -2.29554986E+00 -3.09438488E+00 -1.25290177E-14 -5.01074256E-02  1.10230961E-01
 -1.31975996E-01  1.53325458E-01  7.80959725E-15 -5.12047181E-15 -5.01356341E-03
  1.30253963E+00  2.05955230E-01  5.82180562E-01 -8.61602601E-15 -6.52516827E+00
 -1.53204103E+00 -3.53519695E+00  1.24409192E-14  4.48477272E-02 -1.04971286E-01
  1.31976017E-01 -1.56831905E-01  2.05503943E-17 -2.70429581E-15 -1.32502951E-01
  8.15890909E-01  1.32502895E-01 -8.15890829E-01  3.24712005E-17 -4.03317032E-15
  4.38875353E-15  1.92717541E-15 -2.06987201E-01  5.84958428E-14 -4.52224997E-14
 -4.39210811E-14  6.00571712E-02 -4.46228771E-15 -1.79262640E-15  6.61514032E-15
  3.77814899E-15 -4.38364924E-01 -4.29306631E-01  1.60452617E-16  4.44870775E-15
  2.58885078E-16  3.83791622E-15 -2.06987219E-01 -6.41838758E-14 -1.41785519E-14
 -5.38805874E-14  6.00571806E-02 -6.30060285E-15 -4.09696504E-15  9.16985043E-15
  3.53693569E-15  1.52607932E-01  5.94288481E-01  4.25502489E-15  2.60500803E-14
  1.58758906E-15 -2.36222682E-14 -1.64072983E-15  6.29416053E-14  1.66604131E-13
 -5.88899765E-14 -5.23986438E-02 -2.62856400E-13 -9.38487261E-14 -2.54478243E-14
  1.31342799E-02 -1.09006469E-12 -8.20728037E-13  1.90105217E-12  1.18127650E-12
  4.86771327E-01 -4.54630593E-01 -1.84321411E-15  3.09878325E-14  1.33599646E-13
 -1.23393869E-13 -5.23986859E-02 -7.12373660E-14  1.64508724E-14  2.11590300E-13
  1.31343060E-02 -1.77099320E-12 -1.32636375E-13  1.89610481E-12  7.23983956E-13
  6.37107331E-01 -1.94241064E-01 -4.01154408E-14  1.69372040E-13 -3.56279354E-14
  1.97431245E-13 -5.03757463E-04  1.36525569E-02  5.04997354E-02 -1.65849686E-02
  1.77998257E-13 -4.99948634E-02 -4.04256254E-02 -2.22487925E-02 -4.27160154E-14
 -3.23794088E-01 -2.42726861E-01  5.63970438E-01  3.50917700E-01 -1.63340930E-12
  1.53646074E-12 -5.03754910E-04  1.36525209E-02  3.96128484E-02 -3.54415949E-02
  1.78862358E-13 -4.99948053E-02 -9.44769407E-04  4.61340333E-02 -4.58800311E-14
 -5.26181951E-01 -4.03389959E-02  5.63970445E-01  2.15992463E-01 -2.14662937E-12
  6.45632927E-13 -1.06513268E-02  5.45494784E-02 -1.06513455E-02  5.45494862E-02
 -1.29772037E-03 -1.81544782E-01 -1.21944149E-01  1.81190622E-01  7.12619009E-16
 -3.49964467E-01 -3.98393375E-01 -5.28097014E-01 -3.97695481E-16 -5.74936724E-01
  5.00265090E-01  4.23392427E-02 -1.17321313E-01  4.07969742E-15 -9.56757563E-16
 -1.29773030E-03 -1.81544796E-01 -2.17887775E-01  1.50114466E-02  1.32476597E-15
 -3.49964360E-01  2.58148776E-01  6.09067151E-01 -2.76548486E-16  3.19455605E-01
 -3.94127278E-01  4.23391720E-02  4.78940210E-01  2.17265483E-15 -2.68816010E-15
  4.60994813E-01  2.45507608E-01  4.60994805E-01  2.45507496E-01  3.22551773E-17
  1.61514684E-14 -2.24249744E-15 -5.18198807E-15 -8.01386284E-03 -6.48096434E-14
  1.79874102E-14  2.59419833E-14 -1.45299510E-02 -1.48811955E-14 -9.61345440E-16
  1.50585192E-14  1.11239797E-14  6.65510742E-01 -3.50247109E-01 -5.01865634E-16
 -1.22661580E-14 -3.00665923E-15 -6.98469892E-15  8.01389217E-03  5.94333460E-14
  1.40805446E-14  3.37097610E-14  1.45299394E-02  1.01460458E-14  4.08002127E-15
 -1.73151402E-14 -1.10457202E-14 -6.36078245E-01  4.01225606E-01  8.96268126E-17
 -2.34826151E-15 -1.78571629E-15  8.41306546E-15 -1.25582279E-03 -3.29615096E-02
 -1.53698622E-02 -4.56596880E-02  4.97560936E-16  9.73866753E-01 -6.56142012E-01
 -6.16910174E-01 -2.96293014E-16 -4.31380875E-01 -1.83261343E-01  6.39566780E-01
  3.88350344E-01 -2.03557503E-14  9.71619254E-15  1.25582139E-03  3.29615145E-02
 -3.18575009E-02 -3.61405471E-02 -5.54467837E-16 -9.73866734E-01 -2.06188887E-01
 -8.76690763E-01  6.60746420E-17  5.36553958E-01  7.80882707E-02 -6.39566787E-01
 -3.18234953E-01  1.43250759E-14 -9.42395130E-15  1.34947920E-01  2.92401098E-01
 -1.34947955E-01 -2.92401104E-01 -8.72956461E-02 -8.32737006E-02  2.38577854E-01
  2.47728159E-01 -1.61445716E-15  2.02669076E-01 -2.05510845E-01 -3.20486102E-01
 -2.94498046E-16 -1.22105518E-01  1.83490825E-01 -5.82203018E-01  6.19747769E-01
 -3.66733785E-16  2.17000496E-15 -8.72956474E-02 -8.32736982E-02 -9.52499100E-02
 -3.30478542E-01  7.08142720E-16  2.02669171E-01  1.74793701E-01  3.38220699E-01
  4.44023658E-16 -3.57719091E-01  4.19104405E-01 -5.82203008E-01  4.62672083E-01
  4.02192366E-15  2.93217305E-15 -4.06890319E-01  2.74988725E-01 -4.06890325E-01
  2.74988726E-01  1.07536047E-16 -4.23040442E-15  8.03883988E-16  4.72127821E-15
 -2.18483358E-01  1.78157027E-14 -1.11127045E-14 -1.06636139E-14 -2.99408468E-01
  6.57415780E-15 -9.30528309E-15  3.39092224E-15  2.92585134E-16  4.71113971E-01
  8.61283672E-01  5.23564727E-17  9.83768591E-15  4.15443025E-15  4.65676038E-15
  2.18483343E-01 -2.67380664E-14 -3.77142833E-15 -1.20485407E-14  2.99408476E-01
  6.57338302E-15 -6.97882304E-15  1.95677174E-16  4.20829241E-15  5.10336563E-01
  8.38638517E-01 -1.30405350E-15  6.91558671E-15  3.62179471E-15 -1.34027412E-15
 -7.49846214E-04  1.22336503E-01 -6.27154820E-02 -5.57106494E-01 -6.64030119E-16
  2.05840709E+00 -8.00927102E-01 -1.29151851E+00 -6.43723797E-15 -7.22993036E-01
  1.03586761E+00 -1.27819439E-01 -8.93170195E-02  3.24088572E-16  1.02011431E-14
  7.49848996E-04 -1.22336525E-01 -4.51110633E-01 -3.32866467E-01 -7.44830653E-16
 -2.05840710E+00 -7.18024291E-01 -1.33938248E+00  6.99991689E-15 -6.63140198E-01
  3.50265669E-01  1.27819439E-01 -8.34771820E-01  7.71356175E-15  6.74638826E-15
  2.91715180E-01  3.10559193E-01 -2.91715201E-01 -3.10559184E-01 -6.46676987E-02
  8.62868696E-01 -4.97201357E-01 -7.52938234E-01  3.91625080E-16  2.00881755E+00
 -6.34478724E-01 -8.99582956E-01 -8.23854633E-16  1.08796697E-01  2.95866364E-01
 -7.19568825E-01  1.05407797E+00 -2.94760637E-15  8.68728353E-16  6.46676956E-02
 -8.62868676E-01 -4.03462964E-01 -8.07058116E-01 -1.81139566E-15 -2.00881753E+00
 -4.61822324E-01 -9.99266182E-01  1.66632477E-15  5.41459527E-01 -9.46122612E-01
  7.19568809E-01 -6.20573807E-01  5.76457151E-16 -1.24318215E-15 -4.44525413E-01
  3.75384181E-01  4.44525420E-01 -3.75384190E-01 -3.01916258E-01  2.38398759E+00
 -1.16614137E-01 -1.22766823E-01 -2.65381157E-16  6.30968241E-01  1.16554793E-01
  1.04766934E-01  5.64876458E-16 -1.27752457E+00 -1.30559046E+00 -1.19007254E+00
 -1.05721046E-01 -6.04516654E-16  2.47844308E-16 -3.01916088E-01  2.38398672E+00
  4.80122881E-02  1.62374466E-01 -3.27629020E-16  6.30967351E-01 -3.24535735E-02
 -1.53323006E-01  1.30072366E-16 -1.21928261E+00 -1.36383094E+00 -1.19007199E+00
 -6.68933430E-02 -2.38496612E-16 -1.26818342E-15  2.32558849E-01 -3.36011529E-01
  2.32558705E-01 -3.36011356E-01 -3.50176226E-01  1.79420972E+00  3.10044183E-01