Title Card Required                                                     
SP        RB3LYP                                                      6-31G(d)            
Number of atoms                            I               12
Info1-9                                    I   N=           9
          22          21           0           0           0         110
           1          18        -502
Full Title                                 C   N=           2
Title Card Required     
Route                                      C   N=           2
# B3LYP/6-31G* nosymm   
Charge                                     I                0
Multiplicity                               I                1
Number of electrons                        I               42
Number of alpha electrons                  I               21
Number of beta electrons                   I               21
Number of basis functions                  I              102
Number of independent functions            I              102
Number of point charges in /Mol/           I                0
Number of translation vectors              I                0
Atomic numbers                             I   N=          12
           6           6           1           1           6           6
           1           1           6           6           1           1
Nuclear charges                            R   N=          12
  6.00000000E+00  6.00000000E+00  1.00000000E+00  1.00000000E+00  6.00000000E+00
  6.00000000E+00  1.00000000E+00  1.00000000E+00  6.00000000E+00  6.00000000E+00
  1.00000000E+00  1.00000000E+00
Current cartesian coordinates              R   N=          36
 -1.16165866E+00  3.21282173E+00  0.00000000E+00  1.16165866E+00  3.21282173E+00
  0.00000000E+00 -2.97885358E+00  4.08530242E+00  0.00000000E+00  2.97885358E+00
  4.08530242E+00  0.00000000E+00 -3.36321456E+00 -6.00384963E-01  0.00000000E+00
 -2.20155592E+00 -2.61243676E+00  0.00000000E+00 -5.02740248E+00  5.37111660E-01
  0.00000000E+00 -2.04854889E+00 -4.62241408E+00  0.00000000E+00  3.36321456E+00
 -6.00384963E-01  0.00000000E+00  2.20155592E+00 -2.61243676E+00  0.00000000E+00
  5.02740248E+00  5.37111660E-01  0.00000000E+00  2.04854889E+00 -4.62241408E+00
  0.00000000E+00
Number of symbols in /Mol/                 I                0
Force Field                                I                0
Atom Types                                 C   N=          12
                                                            
                                                            
                        
Int Atom Types                             I   N=          12
           0           0           0           0           0           0
           0           0           0           0           0           0
MM charges                                 R   N=          12
  0.00000000E+00  0.00000000E+00  0.00000000E+00  0.00000000E+00  0.00000000E+00
  0.00000000E+00  0.00000000E+00  0.00000000E+00  0.00000000E+00  0.00000000E+00
  0.00000000E+00  0.00000000E+00
Integer atomic weights                     I   N=          12
          12          12           1           1          12          12
           1           1          12          12           1           1
Real atomic weights                        R   N=          12
  1.20000000E+01  1.20000000E+01  1.00782504E+00  1.00782504E+00  1.20000000E+01
  1.20000000E+01  1.00782504E+00  1.00782504E+00  1.20000000E+01  1.20000000E+01
  1.00782504E+00  1.00782504E+00
Atom fragment info                         I   N=          12
           0           0           0           0           0           0
           0           0           0           0           0           0
Atom residue num                           I   N=          12
           0           0           0           0           0           0
           0           0           0           0           0           0
Nuclear spins                              I   N=          12
           0           0           1           1           0           0
           1           1           0           0           1           1
Nuclear ZEff                               R   N=          12
 -3.60000000E+00 -3.60000000E+00 -1.00000000E+00 -1.00000000E+00 -3.60000000E+00
 -3.60000000E+00 -1.00000000E+00 -1.00000000E+00 -3.60000000E+00 -3.60000000E+00
 -1.00000000E+00 -1.00000000E+00
Nuclear ZNuc                               R   N=          12
  6.00000000E+00  6.00000000E+00  1.00000000E+00  1.00000000E+00  6.00000000E+00
  6.00000000E+00  1.00000000E+00  1.00000000E+00  6.00000000E+00  6.00000000E+00
  1.00000000E+00  1.00000000E+00
Nuclear QMom                               R   N=          12
  0.00000000E+00  0.00000000E+00  0.00000000E+00  0.00000000E+00  0.00000000E+00
  0.00000000E+00  0.00000000E+00  0.00000000E+00  0.00000000E+00  0.00000000E+00
  0.00000000E+00  0.00000000E+00
Nuclear GFac                               R   N=          12
  0.00000000E+00  0.00000000E+00  2.79284600E+00  2.79284600E+00  0.00000000E+00
  0.00000000E+00  2.79284600E+00  2.79284600E+00  0.00000000E+00  0.00000000E+00
  2.79284600E+00  2.79284600E+00
MicOpt                                     I   N=          12
          -1          -1          -1          -1          -1          -1
          -1          -1          -1          -1          -1          -1
Number of residues                         I                0
Number of secondary structures             I                0
Number of contracted shells                I               36
Number of primitive shells                 I               90
Pure/Cartesian d shells                    I                1
Pure/Cartesian f shells                    I                0
Highest angular momentum                   I                2
Largest degree of contraction              I                6
Shell types                                I   N=          36
           0          -1          -1           2           0          -1
          -1           2           0           0           0           0
           0          -1          -1           2           0          -1
          -1           2           0           0           0           0
           0          -1          -1           2           0          -1
          -1           2           0           0           0           0
Number of primitives per shell             I   N=          36
           6           3           1           1           6           3
           1           1           3           1           3           1
           6           3           1           1           6           3
           1           1           3           1           3           1
           6           3           1           1           6           3
           1           1           3           1           3           1
Shell to atom map                          I   N=          36
           1           1           1           1           2           2
           2           2           3           3           4           4
           5           5           5           5           6           6
           6           6           7           7           8           8
           9           9           9           9          10          10
          10          10          11          11          12          12
Primitive exponents                        R   N=          90
  3.04752488E+03  4.57369518E+02  1.03948685E+02  2.92101553E+01  9.28666296E+00
  3.16392696E+00  7.86827235E+00  1.88128854E+00  5.44249258E-01  1.68714478E-01
  8.00000000E-01  3.04752488E+03  4.57369518E+02  1.03948685E+02  2.92101553E+01
  9.28666296E+00  3.16392696E+00  7.86827235E+00  1.88128854E+00  5.44249258E-01
  1.68714478E-01  8.00000000E-01  1.87311370E+01  2.82539436E+00  6.40121692E-01
  1.61277759E-01  1.87311370E+01  2.82539436E+00  6.40121692E-01  1.61277759E-01
  3.04752488E+03  4.57369518E+02  1.03948685E+02  2.92101553E+01  9.28666296E+00
  3.16392696E+00  7.86827235E+00  1.88128854E+00  5.44249258E-01  1.68714478E-01
  8.00000000E-01  3.04752488E+03  4.57369518E+02  1.03948685E+02  2.92101553E+01
  9.28666296E+00  3.16392696E+00  7.86827235E+00  1.88128854E+00  5.44249258E-01
  1.68714478E-01  8.00000000E-01  1.87311370E+01  2.82539436E+00  6.40121692E-01
  1.61277759E-01  1.87311370E+01  2.82539436E+00  6.40121692E-01  1.61277759E-01
  3.04752488E+03  4.57369518E+02  1.03948685E+02  2.92101553E+01  9.28666296E+00
  3.16392696E+00  7.86827235E+00  1.88128854E+00  5.44249258E-01  1.68714478E-01
  8.00000000E-01  3.04752488E+03  4.57369518E+02  1.03948685E+02  2.92101553E+01
  9.28666296E+00  3.16392696E+00  7.86827235E+00  1.88128854E+00  5.44249258E-01
  1.68714478E-01  8.00000000E-01  1.87311370E+01  2.82539436E+00  6.40121692E-01
  1.61277759E-01  1.87311370E+01  2.82539436E+00  6.40121692E-01  1.61277759E-01
Contraction coefficients                   R   N=          90
  1.83473713E-03  1.40373228E-02  6.88426223E-02  2.32184443E-01  4.67941348E-01
  3.62311985E-01 -1.19332420E-01 -1.60854152E-01  1.14345644E+00  1.00000000E+00
  1.00000000E+00  1.83473713E-03  1.40373228E-02  6.88426223E-02  2.32184443E-01
  4.67941348E-01  3.62311985E-01 -1.19332420E-01 -1.60854152E-01  1.14345644E+00
  1.00000000E+00  1.00000000E+00  3.34946043E-02  2.34726953E-01  8.13757326E-01
  1.00000000E+00  3.34946043E-02  2.34726953E-01  8.13757326E-01  1.00000000E+00
  1.83473713E-03  1.40373228E-02  6.88426223E-02  2.32184443E-01  4.67941348E-01
  3.62311985E-01 -1.19332420E-01 -1.60854152E-01  1.14345644E+00  1.00000000E+00
  1.00000000E+00  1.83473713E-03  1.40373228E-02  6.88426223E-02  2.32184443E-01
  4.67941348E-01  3.62311985E-01 -1.19332420E-01 -1.60854152E-01  1.14345644E+00
  1.00000000E+00  1.00000000E+00  3.34946043E-02  2.34726953E-01  8.13757326E-01
  1.00000000E+00  3.34946043E-02  2.34726953E-01  8.13757326E-01  1.00000000E+00
  1.83473713E-03  1.40373228E-02  6.88426223E-02  2.32184443E-01  4.67941348E-01
  3.62311985E-01 -1.19332420E-01 -1.60854152E-01  1.14345644E+00  1.00000000E+00
  1.00000000E+00  1.83473713E-03  1.40373228E-02  6.88426223E-02  2.32184443E-01
  4.67941348E-01  3.62311985E-01 -1.19332420E-01 -1.60854152E-01  1.14345644E+00
  1.00000000E+00  1.00000000E+00  3.34946043E-02  2.34726953E-01  8.13757326E-01
  1.00000000E+00  3.34946043E-02  2.34726953E-01  8.13757326E-01  1.00000000E+00
P(S=P) Contraction coefficients            R   N=          90
  0.00000000E+00  0.00000000E+00  0.00000000E+00  0.00000000E+00  0.00000000E+00
  0.00000000E+00  6.89990666E-02  3.16423961E-01  7.44308291E-01  1.00000000E+00
  0.00000000E+00  0.00000000E+00  0.00000000E+00  0.00000000E+00  0.00000000E+00
  0.00000000E+00  0.00000000E+00  6.89990666E-02  3.16423961E-01  7.44308291E-01
  1.00000000E+00  0.00000000E+00  0.00000000E+00  0.00000000E+00  0.00000000E+00
  0.00000000E+00  0.00000000E+00  0.00000000E+00  0.00000000E+00  0.00000000E+00
  0.00000000E+00  0.00000000E+00  0.00000000E+00  0.00000000E+00  0.00000000E+00
  0.00000000E+00  6.89990666E-02  3.16423961E-01  7.44308291E-01  1.00000000E+00
  0.00000000E+00  0.00000000E+00  0.00000000E+00  0.00000000E+00  0.00000000E+00
  0.00000000E+00  0.00000000E+00  6.89990666E-02  3.16423961E-01  7.44308291E-01
  1.00000000E+00  0.00000000E+00  0.00000000E+00  0.00000000E+00  0.00000000E+00
  0.00000000E+00  0.00000000E+00  0.00000000E+00  0.00000000E+00  0.00000000E+00
  0.00000000E+00  0.00000000E+00  0.00000000E+00  0.00000000E+00  0.00000000E+00
  0.00000000E+00  6.89990666E-02  3.16423961E-01  7.44308291E-01  1.00000000E+00
  0.00000000E+00  0.00000000E+00  0.00000000E+00  0.00000000E+00  0.00000000E+00
  0.00000000E+00  0.00000000E+00  6.89990666E-02  3.16423961E-01  7.44308291E-01
  1.00000000E+00  0.00000000E+00  0.00000000E+00  0.00000000E+00  0.00000000E+00
  0.00000000E+00  0.00000000E+00  0.00000000E+00  0.00000000E+00  0.00000000E+00
Coordinates of each shell                  R   N=         108
 -1.16165866E+00  3.21282173E+00  0.00000000E+00 -1.16165866E+00  3.21282173E+00
  0.00000000E+00 -1.16165866E+00  3.21282173E+00  0.00000000E+00 -1.16165866E+00
  3.21282173E+00  0.00000000E+00  1.16165866E+00  3.21282173E+00  0.00000000E+00
  1.16165866E+00  3.21282173E+00  0.00000000E+00  1.16165866E+00  3.21282173E+00
  0.00000000E+00  1.16165866E+00  3.21282173E+00  0.00000000E+00 -2.97885358E+00
  4.08530242E+00  0.00000000E+00 -2.97885358E+00  4.08530242E+00  0.00000000E+00
  2.97885358E+00  4.08530242E+00  0.00000000E+00  2.97885358E+00  4.08530242E+00
  0.00000000E+00 -3.36321456E+00 -6.00384963E-01  0.00000000E+00 -3.36321456E+00
 -6.00384963E-01  0.00000000E+00 -3.36321456E+00 -6.00384963E-01  0.00000000E+00
 -3.36321456E+00 -6.00384963E-01  0.00000000E+00 -2.20155592E+00 -2.61243676E+00
  0.00000000E+00 -2.20155592E+00 -2.61243676E+00  0.00000000E+00 -2.20155592E+00
 -2.61243676E+00  0.00000000E+00 -2.20155592E+00 -2.61243676E+00  0.00000000E+00
 -5.02740248E+00  5.37111660E-01  0.00000000E+00 -5.02740248E+00  5.37111660E-01
  0.00000000E+00 -2.04854889E+00 -4.62241408E+00  0.00000000E+00 -2.04854889E+00
 -4.62241408E+00  0.00000000E+00  3.36321456E+00 -6.00384963E-01  0.00000000E+00
  3.36321456E+00 -6.00384963E-01  0.00000000E+00  3.36321456E+00 -6.00384963E-01
  0.00000000E+00  3.36321456E+00 -6.00384963E-01  0.00000000E+00  2.20155592E+00
 -2.61243676E+00  0.00000000E+00  2.20155592E+00 -2.61243676E+00  0.00000000E+00
  2.20155592E+00 -2.61243676E+00  0.00000000E+00  2.20155592E+00 -2.61243676E+00
  0.00000000E+00  5.02740248E+00  5.37111660E-01  0.00000000E+00  5.02740248E+00
  5.37111660E-01  0.00000000E+00  2.04854889E+00 -4.62241408E+00  0.00000000E+00
  2.04854889E+00 -4.62241408E+00  0.00000000E+00
Num ILSW                                   I              100
ILSW                                       I   N=         100
           0           1           0           0           2           0
           0           0           0           0         402          -1
           5           0           0           0           0           0
           0           0           1           0           0           0
           1           1           0           0           0           0
           0           0      100000           0          -1           0
           0           0           0           0           0           0
           0           0           0           1           0           0
           0 -2000000000           1           0           0           0
           0           0           4          52           0           0
           0           0           5           0           0           0
           0           0           0           0           0           1
           0           0           0           0           0           0
           0           0           0           0           0           0
           0           0           0           0           0           0
           0           0           0           0           0           0
           0           0           0           0
Num RLSW                                   I               52
RLSW                                       R   N=          52
  8.00000000E-01  7.20000000E-01  1.00000000E+00  8.10000000E-01  2.00000000E-01
  0.00000000E+00  0.00000000E+00  1.00000000E+00  0.00000000E+00  0.00000000E+00
  0.00000000E+00  0.00000000E+00  1.00000000E+00  0.00000000E+00  0.00000000E+00
  0.00000000E+00  0.00000000E+00  1.00000000E+00  0.00000000E+00  0.00000000E+00
  0.00000000E+00  0.00000000E+00  1.00000000E+00  0.00000000E+00  0.00000000E+00
  0.00000000E+00  0.00000000E+00  1.00000000E+00  0.00000000E+00  0.00000000E+00
  0.00000000E+00  0.00000000E+00  1.00000000E+00  0.00000000E+00  0.00000000E+00
  0.00000000E+00  0.00000000E+00  0.00000000E+00  1.00000000E+00  1.00000000E+00
  0.00000000E+00  1.00000000E+00  0.00000000E+00  0.00000000E+00  0.00000000E+00
  0.00000000E+00  0.00000000E+00  0.00000000E+00  0.00000000E+00  0.00000000E+00
  0.00000000E+00  0.00000000E+00
MxBond                                     I                2
NBond                                      I   N=          12
           2           2           1           1           2           2
           1           1           2           2           1           1
IBond                                      I   N=          24
           2           3           1           4           1           0
           2           0           6           7           5           8
           5           0           6           0          10          11
           9          12           9           0          10           0
RBond                                      R   N=          24
  3.00000000E+00  1.00000000E+00  3.00000000E+00  1.00000000E+00  1.00000000E+00
  0.00000000E+00  1.00000000E+00  0.00000000E+00  3.00000000E+00  1.00000000E+00
  3.00000000E+00  1.00000000E+00  1.00000000E+00  0.00000000E+00  1.00000000E+00
  0.00000000E+00  3.00000000E+00  1.00000000E+00  3.00000000E+00  1.00000000E+00
  1.00000000E+00  0.00000000E+00  1.00000000E+00  0.00000000E+00
Virial Ratio                               R      2.010254733400433E+00
SCF Energy                                 R     -2.319098812773460E+02
Total Energy                               R     -2.319098812773460E+02
RMS Density                                R      4.625669503326195E-09
Job Status                                 I                1
Nuclear derivative order                   I                0
External E-field                           R   N=          35
  0.00000000E+00  0.00000000E+00  0.00000000E+00  0.00000000E+00  0.00000000E+00
  0.00000000E+00  0.00000000E+00  0.00000000E+00  0.00000000E+00  0.00000000E+00
  0.00000000E+00  0.00000000E+00  0.00000000E+00  0.00000000E+00  0.00000000E+00
  0.00000000E+00  0.00000000E+00  0.00000000E+00  0.00000000E+00  0.00000000E+00
  0.00000000E+00  0.00000000E+00  0.00000000E+00  0.00000000E+00  0.00000000E+00
  0.00000000E+00  0.00000000E+00  0.00000000E+00  0.00000000E+00  0.00000000E+00
  0.00000000E+00  0.00000000E+00  0.00000000E+00  0.00000000E+00  0.00000000E+00
IOpCl                                      I                0
IROHF                                      I                0
Alpha Orbital Energies                     R   N=         102
 -1.01878929E+01 -1.01878926E+01 -1.01878874E+01 -1.01859098E+01 -1.01859069E+01
 -1.01859065E+01 -7.53356593E-01 -7.28874751E-01 -7.28874545E-01 -5.73428011E-01
 -5.73427909E-01 -5.20843473E-01 -4.96589642E-01 -4.62898626E-01 -4.62898470E-01
 -3.37305043E-01 -2.90724064E-01 -2.61783126E-01 -2.61783121E-01 -2.34842520E-01
 -2.34842233E-01 -1.17395688E-02 -1.17394677E-02  3.73080201E-02  3.73080986E-02
  9.65390128E-02  1.09927536E-01  1.16274081E-01  1.34380762E-01  1.34380785E-01
  2.04882115E-01  2.04882168E-01  2.65673702E-01  4.03001679E-01  4.03001691E-01
  4.19510142E-01  4.53167811E-01  4.71690792E-01  4.71690975E-01  4.89544424E-01
  5.74619619E-01  5.74720236E-01  5.74720836E-01  6.65143859E-01  6.67500528E-01
  6.67500704E-01  7.17831185E-01  7.17831213E-01  7.46928229E-01  8.31737944E-01
  8.31738686E-01  8.72212093E-01  8.72212279E-01  8.84503587E-01  9.22062070E-01
  9.43539620E-01  9.43540084E-01  9.82987024E-01  1.06274481E+00  1.06274493E+00
  1.18065908E+00  1.18065911E+00  1.22305294E+00  1.27926551E+00  1.27926630E+00
  1.49798735E+00  1.50349823E+00  1.50349838E+00  1.50742800E+00  1.54408759E+00
  1.58437024E+00  1.58437038E+00  1.74776455E+00  1.74776465E+00  1.78258359E+00
  1.78258375E+00  1.80094309E+00  1.80733537E+00  1.92188539E+00  1.92188553E+00
  1.97510998E+00  2.00790175E+00  2.00790178E+00  2.27474399E+00  2.28753214E+00
  2.35801470E+00  2.35801489E+00  2.48261761E+00  2.48261774E+00  2.48263829E+00
  2.67527414E+00  2.69188241E+00  2.69188255E+00  3.08366131E+00  3.08366156E+00
  3.08931160E+00  4.12391831E+00  4.17159945E+00  4.17159974E+00  4.31785239E+00
  4.31785261E+00  4.40978009E+00
Alpha MO coefficients                      R   N=       10404
  3.75834492E-04 -2.09000276E-04  2.43247645E-05  5.01082885E-05 -1.63638628E-16
  2.18378119E-03  8.43011189E-04 -8.16179809E-04 -6.21750391E-16 -2.27254046E-05
 -2.66905740E-05 -1.15516989E-04 -2.17383365E-06 -1.36646702E-15 -1.84326479E-17
 -3.75837193E-04  2.09000144E-04  2.43247632E-05 -5.01082874E-05  1.30887192E-17
 -2.18378117E-03  8.43011193E-04  8.16179805E-04  5.11710923E-16  2.27254282E-05
  2.66906016E-05  1.15517016E-04 -2.17383459E-06 -9.69096959E-16  1.02879835E-16
  4.16974384E-06  2.33950149E-04 -4.16974212E-06 -2.33950156E-04  4.96318674E-01
  2.40953423E-02 -3.73119227E-05  2.69195372E-04  1.06865126E-16 -3.04013515E-03
  6.05292712E-04 -1.06080300E-03  1.57675860E-16 -4.83169371E-03 -4.65996921E-03
 -5.03276660E-03 -4.33443482E-04  2.81826276E-16 -9.10513284E-16  4.95959118E-01
  2.43051776E-02  2.70034433E-04 -1.62907375E-04 -6.95490341E-17 -5.22446471E-03
 -9.01329156E-04 -8.37815263E-05  1.83588494E-16 -5.00080792E-03 -4.44172965E-03
 -4.91739834E-03 -3.01696104E-04  4.33369660E-16 -6.28290904E-16 -3.39913311E-04
  1.32866067E-03 -3.44098845E-04  1.09469539E-03 -4.96318670E-01 -2.40953421E-02
 -3.73119223E-05 -2.69195370E-04  4.61241458E-17  3.04013511E-03  6.05292717E-04
  1.06080299E-03 -3.73549505E-16  4.83169367E-03  4.65996917E-03  5.03276656E-03
 -4.33443479E-04 -1.83069135E-16  5.46831635E-17 -4.95959115E-01 -2.43051774E-02
  2.70034431E-04  1.62907373E-04 -2.47510480E-17  5.22446470E-03 -9.01329155E-04
  8.37815376E-05  3.66724957E-16  5.00080789E-03  4.44172962E-03  4.91739830E-03
 -3.01696101E-04  1.94912547E-16  1.54064530E-17  3.39913308E-04 -1.32866067E-03
  3.44098842E-04 -1.09469538E-03  5.50632392E-01  2.68721623E-02 -2.89673614E-04
 -1.47336568E-04  2.57649317E-17 -4.63475190E-03  8.93753518E-04  4.88508213E-04
 -1.75219395E-17 -4.84331888E-03 -5.65865927E-03 -5.51116076E-03 -1.47373574E-04
  1.30315966E-16 -5.30230311E-16  5.50632392E-01  2.68721623E-02  2.89673614E-04
 -1.47336568E-04  1.25727220E-16 -4.63475192E-03 -8.93753512E-04  4.88508219E-04
  2.68749911E-16 -4.84331888E-03 -5.65865927E-03 -5.51116076E-03  1.47373574E-04
  1.49237258E-16 -2.47858785E-16 -3.77446063E-04  1.34746053E-03 -3.77446063E-04
  1.34746053E-03 -3.07168607E-01 -1.51655569E-02 -6.73189038E-06 -2.20841637E-04
  4.77265748E-16  4.40106842E-03  9.28657109E-04  2.59474660E-04 -3.83359399E-16
  2.97114606E-03  2.85852565E-03  2.99388772E-03  2.63031672E-04  1.41914472E-17
  2.21932366E-16 -3.07829140E-01 -1.48045766E-02 -9.85250734E-05  1.11480929E-04
 -2.27353474E-17  6.23985774E-04  1.95522331E-04 -1.29413082E-03  1.39640505E-16
  3.13132483E-03  2.78400800E-03  3.19379588E-03  1.89379774E-04 -2.19058806E-16
 -7.67326820E-16  2.17699035E-04 -5.45934437E-04  2.10492847E-04 -9.50613992E-04
 -3.07168610E-01 -1.51655571E-02  6.73189009E-06 -2.20841639E-04 -2.48151066E-16
  4.40106844E-03 -9.28657104E-04  2.59474668E-04 -9.02196729E-17  2.97114610E-03
  2.85852568E-03  2.99388776E-03 -2.63031675E-04 -5.36730636E-16 -4.10250886E-16
 -3.07829143E-01 -1.48045768E-02  9.85250754E-05  1.11480930E-04 -2.56786860E-16
  6.23985814E-04 -1.95522338E-04 -1.29413082E-03  9.85119521E-18  3.13132487E-03
  2.78400804E-03  3.19379592E-03 -1.89379776E-04  5.67024451E-16 -4.84888015E-17
  2.17699038E-04 -5.45934446E-04  2.10492850E-04 -9.50614000E-04  4.34809480E-01
  2.09474867E-02 -2.92785798E-04  1.65395304E-06 -1.00285897E-16 -2.70538067E-03
  5.83941343E-04 -1.77429103E-04 -5.60491505E-17 -3.87962712E-03 -4.51046357E-03
 -4.55548745E-03 -5.06740102E-05 -1.30346660E-16  3.41774424E-16  4.34809480E-01
  2.09474867E-02  2.92785798E-04  1.65395321E-06 -2.86644334E-16 -2.70538066E-03
 -5.83941346E-04 -1.77429106E-04  3.88399779E-17 -3.87962712E-03 -4.51046357E-03
 -4.55548745E-03  5.06740102E-05 -4.08147659E-16  1.79831933E-16 -3.39799816E-04
  1.01097253E-03 -3.39799816E-04  1.01097253E-03  3.89299899E-01  1.87172120E-02
 -1.47271390E-04  2.23805746E-04 -1.29519771E-16 -2.22593388E-03  4.93643841E-04
 -3.49225453E-04  1.01375918E-16 -3.87358677E-03 -3.65005236E-03 -4.10426490E-03
 -3.01262242E-04  6.65798914E-16  4.59919716E-16  3.89278178E-01  1.87370252E-02
  1.25282927E-04 -2.39066853E-04 -4.26028904E-16 -2.42651953E-03 -8.17756919E-05
  4.97644526E-04  5.25312499E-16 -3.92949687E-03 -3.58983801E-03 -4.09379032E-03
 -2.62321993E-04 -5.04317122E-16  3.74876511E-16 -3.08225728E-04  9.10519140E-04
 -3.08617939E-04  8.89071097E-04  3.89299901E-01  1.87172121E-02  1.47271390E-04
  2.23805747E-04  2.08000086E-16 -2.22593389E-03 -4.93643843E-04 -3.49225456E-04
  1.44976819E-16 -3.87358679E-03 -3.65005237E-03 -4.10426492E-03  3.01262243E-04
 -2.36170855E-16  2.28517668E-16  3.89278179E-01  1.87370253E-02 -1.25282928E-04
 -2.39066853E-04  2.08150587E-17 -2.42651955E-03  8.17756948E-05  4.97644525E-04
 -4.29355326E-16 -3.92949689E-03 -3.58983803E-03 -4.09379034E-03  2.62321994E-04
 -2.74201099E-16 -6.06829677E-16 -3.08225729E-04  9.10519144E-04 -3.08617940E-04
  8.89071101E-04  3.55920112E-01  1.84021904E-02  2.32180048E-04 -2.07778038E-04
  8.32058264E-17 -1.27770161E-02 -5.02286763E-03  1.98686370E-03  3.95065355E-16
 -2.99989887E-03 -3.43656821E-03 -3.24967733E-03 -1.25897063E-04  2.30305820E-17
  1.14045661E-16 -3.55920112E-01 -1.84021904E-02  2.32180048E-04  2.07778038E-04
  9.98622367E-17  1.27770161E-02 -5.02286763E-03 -1.98686369E-03 -3.44807210E-16
  2.99989887E-03  3.43656821E-03  3.24967734E-03 -1.25897062E-04 -1.20596174E-16
 -4.18149541E-16 -3.54932401E-04 -4.36055730E-04  3.54932402E-04  4.36055734E-04
 -4.28183868E-01 -2.20099639E-02 -3.40708358E-04  1.27617525E-04 -3.22775866E-16
  1.39526408E-02  4.39765119E-03 -3.61801080E-03 -1.36563403E-16  3.89737438E-03
  3.85908962E-03  3.96805178E-03  3.30514029E-04  2.62236129E-16 -4.86392055E-17
  4.28238376E-01  2.20450627E-02  6.05834079E-05  3.61522398E-04 -2.33424747E-16
 -1.40831158E-02  8.71421381E-04 -5.60537501E-03 -3.47026079E-17 -4.12421701E-03
 -3.63231033E-03 -3.95029518E-03 -1.86184870E-04 -1.96541571E-16  4.70769641E-16
  4.12481108E-04  3.57602137E-04 -4.04981878E-04 -3.17899401E-04  4.28183861E-01
  2.20099635E-02 -3.40708353E-04 -1.27617522E-04  7.08770064E-17 -1.39526407E-02
  4.39765117E-03  3.61801078E-03  1.01656821E-16 -3.89737432E-03 -3.85908956E-03
 -3.96805171E-03  3.30514024E-04 -5.03992589E-17 -3.75246477E-17 -4.28238370E-01
 -2.20450624E-02  6.05834083E-05 -3.61522393E-04  1.90151543E-16  1.40831157E-02
  8.71421367E-04  5.60537499E-03  2.31373774E-16  4.12421695E-03  3.63231027E-03
  3.95029511E-03 -1.86184867E-04 -3.76348647E-17  2.49764248E-16 -4.12481103E-04
 -3.57602148E-04  4.04981873E-04  3.17899408E-04 -4.70921245E-04 -2.45824244E-04
 -1.31488109E-05  1.35835280E-05 -5.43430696E-16  8.97028971E-04 -2.88698703E-04
 -3.33512917E-04  6.54080282E-16 -3.43562072E-05  3.66518963E-05 -1.20994208E-04
  4.63666762E-05  6.34314383E-16  6.06166640E-16 -4.70943218E-04 -2.45825354E-04
  1.31488258E-05  1.35835368E-05 -2.85983007E-16  8.97029454E-04  2.88698558E-04
 -3.33512957E-04 -5.19710180E-16 -3.43560200E-05  3.66521093E-05 -1.20993997E-04
 -4.63666835E-05 -6.33259091E-16  2.76992833E-16 -5.14449459E-05 -2.72951376E-04
 -5.14449281E-05 -2.72951391E-04  4.96801116E-01  2.50252351E-02  3.25212562E-04
 -2.13642747E-04  1.32737898E-16 -8.97220290E-03 -1.28172211E-03  1.37963471E-03
 -7.56469371E-17 -4.54739193E-03 -4.52103619E-03 -4.81301577E-03 -3.96807119E-04
  6.26346660E-17 -1.03215036E-16 -4.96313914E-01 -2.47786229E-02  2.76073729E-05
 -3.70295182E-04 -3.92210281E-16  8.07507481E-03 -9.87121072E-04  1.88310836E-03
  3.29424533E-16  4.77138934E-03  4.29442520E-03  4.93383755E-03  1.99250053E-04
 -4.90009925E-18  1.92599240E-16 -3.43823090E-04  8.11712057E-04  3.95255220E-04
 -5.38722663E-04  4.96801115E-01  2.50252350E-02 -3.25212563E-04 -2.13642745E-04
 -2.78109498E-17 -8.97220300E-03  1.28172216E-03  1.37963473E-03  1.93074757E-16
 -4.54739192E-03 -4.52103617E-03 -4.81301575E-03  3.96807120E-04 -6.96412192E-16
  2.91842757E-16 -4.96313913E-01 -2.47786229E-02 -2.76073717E-05 -3.70295181E-04
  1.56494736E-16  8.07507487E-03  9.87121084E-04  1.88310842E-03 -1.96857467E-16
  4.77138933E-03  4.29442519E-03  4.93383753E-03 -1.99250052E-04 -5.09010082E-16
  3.81416419E-16 -3.43823089E-04  8.11712047E-04  3.95255221E-04 -5.38722640E-04
  6.05433910E-01  3.04086424E-02  4.14800172E-04 -2.12236825E-04  1.76609257E-16
 -1.09549185E-02 -2.71811601E-03  4.61256177E-04 -2.32970368E-16 -5.17462350E-03
 -5.87530089E-03 -5.92145242E-03 -1.98393440E-04 -1.38518044E-16  3.92307019E-17
 -6.05433910E-01 -3.04086424E-02  4.14800171E-04  2.12236825E-04 -1.96650326E-17
  1.09549185E-02 -2.71811602E-03 -4.61256168E-04 -1.50618275E-16  5.17462350E-03
  5.87530089E-03  5.92145242E-03 -1.98393439E-04  3.41853503E-16  2.17891374E-17
 -4.58161374E-04  7.45667451E-04  4.58161376E-04 -7.45667443E-04  2.51183325E-01
  1.23582110E-02  1.38441702E-04 -1.07695007E-04 -1.84566042E-16 -2.98209849E-03
 -2.04257296E-04  9.77126837E-04  3.24495289E-16 -2.32440752E-03 -2.27291594E-03
 -2.59415885E-03 -1.34024922E-04  6.45695218E-16 -6.06243529E-16 -2.51987490E-01
 -1.27820561E-02  1.50948701E-05 -2.05117455E-04 -3.07103675E-17  4.53020708E-03
  3.52109185E-06  5.21752589E-04 -2.07922052E-16  2.47885816E-03  2.12226377E-03
  2.38525008E-03  1.14018372E-04  2.26085046E-17 -3.13412647E-16 -2.24031493E-04
  1.84177237E-04  1.35236579E-04 -6.55248003E-04 -2.51183339E-01 -1.23582117E-02
  1.38441711E-04  1.07695013E-04 -5.41896615E-18  2.98209874E-03 -2.04257332E-04