 Default is to use a total of   4 processors:
                                4 via shared-memory
                                1 via Linda
 Entering Link 1 = d:\study\G09W\l1.exe PID=     18048.
  
 Copyright (c) 1988,1990,1992,1993,1995,1998,2003,2009,2010,
            Gaussian, Inc.  All Rights Reserved.
  
 This is part of the Gaussian(R) 09 program.  It is based on
 the Gaussian(R) 03 system (copyright 2003, Gaussian, Inc.),
 the Gaussian(R) 98 system (copyright 1998, Gaussian, Inc.),
 the Gaussian(R) 94 system (copyright 1995, Gaussian, Inc.),
 the Gaussian 92(TM) system (copyright 1992, Gaussian, Inc.),
 the Gaussian 90(TM) system (copyright 1990, Gaussian, Inc.),
 the Gaussian 88(TM) system (copyright 1988, Gaussian, Inc.),
 the Gaussian 86(TM) system (copyright 1986, Carnegie Mellon
 University), and the Gaussian 82(TM) system (copyright 1983,
 Carnegie Mellon University). Gaussian is a federally registered
 trademark of Gaussian, Inc.
  
 This software contains proprietary and confidential information,
 including trade secrets, belonging to Gaussian, Inc.
  
 This software is provided under written license and may be
 used, copied, transmitted, or stored only in accord with that
 written license.
  
 The following legend is applicable only to US Government
 contracts under FAR:
  
                    RESTRICTED RIGHTS LEGEND
  
 Use, reproduction and disclosure by the US Government is
 subject to restrictions as set forth in subparagraphs (a)
 and (c) of the Commercial Computer Software - Restricted
 Rights clause in FAR 52.227-19.
  
 Gaussian, Inc.
 340 Quinnipiac St., Bldg. 40, Wallingford CT 06492
  
  
 ---------------------------------------------------------------
 Warning -- This program may not be used in any manner that
 competes with the business of Gaussian, Inc. or will provide
 assistance to any competitor of Gaussian, Inc.  The licensee
 of this program is prohibited from giving any competitor of
 Gaussian, Inc. access to this program.  By using this program,
 the user acknowledges that Gaussian, Inc. is engaged in the
 business of creating and licensing software in the field of
 computational chemistry and represents and warrants to the
 licensee that it is not a competitor of Gaussian, Inc. and that
 it will not use this program in any manner prohibited above.
 ---------------------------------------------------------------
  

 Cite this work as:
 Gaussian 09, Revision B.01,
 M. J. Frisch, G. W. Trucks, H. B. Schlegel, G. E. Scuseria, 
 M. A. Robb, J. R. Cheeseman, G. Scalmani, V. Barone, B. Mennucci, 
 G. A. Petersson, H. Nakatsuji, M. Caricato, X. Li, H. P. Hratchian, 
 A. F. Izmaylov, J. Bloino, G. Zheng, J. L. Sonnenberg, M. Hada, 
 M. Ehara, K. Toyota, R. Fukuda, J. Hasegawa, M. Ishida, T. Nakajima, 
 Y. Honda, O. Kitao, H. Nakai, T. Vreven, J. A. Montgomery, Jr., 
 J. E. Peralta, F. Ogliaro, M. Bearpark, J. J. Heyd, E. Brothers, 
 K. N. Kudin, V. N. Staroverov, T. Keith, R. Kobayashi, J. Normand, 
 K. Raghavachari, A. Rendell, J. C. Burant, S. S. Iyengar, J. Tomasi, 
 M. Cossi, N. Rega, J. M. Millam, M. Klene, J. E. Knox, J. B. Cross, 
 V. Bakken, C. Adamo, J. Jaramillo, R. Gomperts, R. E. Stratmann, 
 O. Yazyev, A. J. Austin, R. Cammi, C. Pomelli, J. W. Ochterski, 
 R. L. Martin, K. Morokuma, V. G. Zakrzewski, G. A. Voth, 
 P. Salvador, J. J. Dannenberg, S. Dapprich, A. D. Daniels, 
 O. Farkas, J. B. Foresman, J. V. Ortiz, J. Cioslowski, 
 and D. J. Fox, Gaussian, Inc., Wallingford CT, 2010.
 
 ******************************************
 Gaussian 09:  IA32W-G09RevB.01 12-Aug-2010
                18-Mar-2014 
 ******************************************
 %chk=C:\gtest\(2S)-2-methyloxirane.chk
 -------------------------
 # b3lyp/6-31g(d) freq=vcd
 -------------------------
 1/10=4,30=1,38=1/1,3;
 2/12=2,17=6,18=5,40=1/2;
 3/5=1,6=6,7=1,11=2,16=1,25=1,30=1,36=2,71=2,74=-5/1,2,3;
 4//1;
 5/5=2,38=5,98=1/2;
 8/6=4,10=90,11=11/1;
 10/15=4,46=1/2;
 11/6=1,8=1,9=11,15=111,16=1/1,2,10;
 10/6=1,46=1/2;
 6/7=2,8=2,9=2,10=2,18=1,28=1/1;
 7/8=1,10=1,25=1/1,2,3,16;
 1/10=4,30=1/3;
 99//99;
 --------------------
 b3lyp/6-31g(d) opted
 --------------------
 Symbolic Z-matrix:
 Charge =  0 Multiplicity = 1
 C                     0.15209  -0.03782   0.48962 
 C                    -1.04502   0.61516  -0.06017 
 O                    -0.82673  -0.78926  -0.2432 
 H                     0.1552   -0.25632   1.56041 
 H                    -0.9577    1.22245  -0.96233 
 H                    -1.87555   0.8793    0.59576 
 C                     1.5111    0.10062  -0.14865 
 H                     2.08961   0.89551   0.33755 
 H                     2.07801  -0.83315  -0.05772 
 H                     1.41527   0.33847  -1.21291 
 

 GradGradGradGradGradGradGradGradGradGradGradGradGradGradGradGradGradGrad
 Berny optimization.
 Initialization pass.
 Trust Radius=3.00D-01 FncErr=1.00D-07 GrdErr=1.00D-07
 Number of steps in this run=      2 maximum allowed number of steps=      2.
 GradGradGradGradGradGradGradGradGradGradGradGradGradGradGradGradGradGrad

                          Input orientation:                          
 ---------------------------------------------------------------------
 Center     Atomic      Atomic             Coordinates (Angstroms)
 Number     Number       Type             X           Y           Z
 ---------------------------------------------------------------------
      1          6           0        0.152086   -0.037817    0.489624
      2          6           0       -1.045018    0.615161   -0.060166
      3          8           0       -0.826733   -0.789257   -0.243202
      4          1           0        0.155196   -0.256318    1.560414
      5          1           0       -0.957703    1.222452   -0.962333
      6          1           0       -1.875545    0.879302    0.595764
      7          6           0        1.511103    0.100621   -0.148651
      8          1           0        2.089613    0.895510    0.337545
      9          1           0        2.078013   -0.833150   -0.057721
     10          1           0        1.415270    0.338468   -1.212906
 ---------------------------------------------------------------------
                    Distance matrix (angstroms):
                    1          2          3          4          5
     1  C    0.000000
     2  C    1.470275   0.000000
     3  O    1.435194   1.433018   0.000000
     4  H    1.092860   2.196877   2.121612   0.000000
     5  H    2.219930   1.091023   2.140391   3.128827   0.000000
     6  H    2.227927   1.090775   2.141952   2.518748   1.840612
     7  C    1.507809   2.608895   2.503258   2.210609   2.831181
     8  H    2.155977   3.172173   3.417716   2.562047   3.329070
     9  H    2.154376   3.442518   2.910993   2.578434   3.776161
    10  H    2.153098   2.731004   2.690477   3.103685   2.544644
                    6          7          8          9         10
     6  H    0.000000
     7  C    3.553855   0.000000
     8  H    3.973590   1.096772   0.000000
     9  H    4.357770   1.096168   1.773312   0.000000
    10  H    3.793844   1.094712   1.780150   1.773801   0.000000
 Stoichiometry    C3H6O
 Framework group  C1[X(C3H6O)]
 Deg. of freedom    24
 Full point group                 C1      NOp   1
 Largest Abelian subgroup         C1      NOp   1
 Largest concise Abelian subgroup C1      NOp   1
                         Standard orientation:                         
 ---------------------------------------------------------------------
 Center     Atomic      Atomic             Coordinates (Angstroms)
 Number     Number       Type             X           Y           Z
 ---------------------------------------------------------------------
      1          6           0        0.152086   -0.037817    0.489624
      2          6           0       -1.045018    0.615161   -0.060166
      3          8           0       -0.826733   -0.789257   -0.243202
      4          1           0        0.155196   -0.256318    1.560414
      5          1           0       -0.957703    1.222452   -0.962333
      6          1           0       -1.875545    0.879302    0.595764
      7          6           0        1.511103    0.100621   -0.148651
      8          1           0        2.089613    0.895510    0.337545
      9          1           0        2.078013   -0.833150   -0.057721
     10          1           0        1.415270    0.338468   -1.212906
 ---------------------------------------------------------------------
 Rotational constants (GHZ):     18.1167714      6.6247737      5.9099975
 Standard basis: 6-31G(d) (6D, 7F)
 There are    72 symmetry adapted basis functions of A   symmetry.
 Integral buffers will be    262144 words long.
 Raffenetti 2 integral format.
 Two-electron integral symmetry is turned on.
    72 basis functions,   136 primitive gaussians,    72 cartesian basis functions
    16 alpha electrons       16 beta electrons
       nuclear repulsion energy       124.4011109126 Hartrees.
 NAtoms=   10 NActive=   10 NUniq=   10 SFac= 1.00D+00 NAtFMM=   50 NAOKFM=F Big=F
 One-electron integrals computed using PRISM.
 NBasis=    72 RedAO= T  NBF=    72
 NBsUse=    72 1.00D-06 NBFU=    72
 Harris functional with IExCor=  402 diagonalized for initial guess.
 ExpMin= 1.61D-01 ExpMax= 5.48D+03 ExpMxC= 8.25D+02 IAcc=1 IRadAn=         1 AccDes= 0.00D+00
 HarFok:  IExCor=  402 AccDes= 0.00D+00 IRadAn=         1 IDoV= 1
 ScaDFX=  1.000000  1.000000  1.000000  1.000000
 FoFCou: FMM=F IPFlag=           0 FMFlag=      100000 FMFlg1=           0
         NFxFlg=           0 DoJE=T BraDBF=F KetDBF=T FulRan=T
         Omega=  0.000000  0.000000  1.000000  0.000000  0.000000 ICntrl=     500 IOpCl=  0
         NMat0=    1 NMatS0=    1 NMatT0=    0 NMatD0=    1 NMtDS0=    0 NMtDT0=    0
         I1Cent=           4 NGrid=           0.
 Petite list used in FoFCou.
 Initial guess orbital symmetries:
       Occupied  (A) (A) (A) (A) (A) (A) (A) (A) (A) (A) (A) (A)
                 (A) (A) (A) (A)
       Virtual   (A) (A) (A) (A) (A) (A) (A) (A) (A) (A) (A) (A)
                 (A) (A) (A) (A) (A) (A) (A) (A) (A) (A) (A) (A)
                 (A) (A) (A) (A) (A) (A) (A) (A) (A) (A) (A) (A)
                 (A) (A) (A) (A) (A) (A) (A) (A) (A) (A) (A) (A)
                 (A) (A) (A) (A) (A) (A) (A) (A)
 The electronic state of the initial guess is 1-A.
 Requested convergence on RMS density matrix=1.00D-08 within 128 cycles.
 Requested convergence on MAX density matrix=1.00D-06.
 Requested convergence on             energy=1.00D-06.
 No special actions if energy rises.
 Keep R1 ints in memory in canonical form, NReq=4459138.
 Integral accuracy reduced to 1.0D-05 until final iterations.
 Initial convergence to 1.0D-05 achieved.  Increase integral accuracy.
 SCF Done:  E(RB3LYP) =  -193.108518110     A.U. after   13 cycles
             Convg  =    0.4041D-08             -V/T =  2.0093
 Range of M.O.s used for correlation:     1    72
 NBasis=    72 NAE=    16 NBE=    16 NFC=     0 NFV=     0
 NROrb=     72 NOA=    16 NOB=    16 NVA=    56 NVB=    56
          Differentiating once with respect to magnetic field using GIAOs.
          Electric field/nuclear overlap derivatives assumed to be zero.
          Keep R3 ints in memory in canonical form, NReq=4276236.
 FoFCou: FMM=F IPFlag=           0 FMFlag=           0 FMFlg1=           0
         NFxFlg=           0 DoJE=F BraDBF=F KetDBF=T FulRan=T
         Omega=  0.000000  0.000000  1.000000  0.000000  0.000000 ICntrl=    6100 IOpCl=  0
         NMat0=    1 NMatS0=    1 NMatT0=    0 NMatD0=    1 NMtDS0=    0 NMtDT0=    0
         I1Cent=           7 NGrid=          10.
 Symmetry not used in FoFCou.
          There are     3 degrees of freedom in the 1st order CPHF.  IDoFFX=0.
      3 vectors produced by pass  0 Test12= 2.99D-14 3.33D-08 XBig12= 1.83D+00 4.28D-01.
 AX will form     3 AO Fock derivatives at one time.
      3 vectors produced by pass  1 Test12= 2.99D-14 3.33D-08 XBig12= 2.20D-03 2.39D-02.
      3 vectors produced by pass  2 Test12= 2.99D-14 3.33D-08 XBig12= 8.36D-06 1.46D-03.
      3 vectors produced by pass  3 Test12= 2.99D-14 3.33D-08 XBig12= 1.47D-08 4.68D-05.
      3 vectors produced by pass  4 Test12= 2.99D-14 3.33D-08 XBig12= 2.17D-11 2.11D-06.
      1 vectors produced by pass  5 Test12= 2.99D-14 3.33D-08 XBig12= 3.08D-14 7.11D-08.
 Inverted reduced A of dimension    16 with in-core refinement.
 Calculating GIAO nuclear magnetic shielding tensors.
 SCF GIAO Magnetic shielding tensor (ppm):
  1  C    Isotropic =   142.8184   Anisotropy =    57.1247
   XX=   129.8615   YX=    23.3996   ZX=   -27.7797
   XY=    31.6322   YY=   137.9758   ZY=    12.0213
   XZ=   -33.7190   YZ=     7.0755   ZZ=   160.6178
   Eigenvalues:    92.7905   154.7631   180.9015
  2  C    Isotropic =   143.6453   Anisotropy =    47.7124
   XX=   129.4456   YX=    18.6274   ZX=   -29.3050
   XY=    19.3161   YY=   144.9207   ZY=     1.7216
   XZ=   -24.7898   YZ=     4.1231   ZZ=   156.5696
   Eigenvalues:   104.7988   150.6836   175.4536
  3  O    Isotropic =   309.1120   Anisotropy =   140.5689
   XX=   380.8320   YX=   -28.7912   ZX=   -30.2188
   XY=   -52.1639   YY=   190.5498   ZY=   -78.3796
   XZ=   -33.1958   YZ=   -63.5886   ZZ=   355.9542
   Eigenvalues:   153.6580   370.8534   402.8246
  4  H    Isotropic =    29.4163   Anisotropy =    11.3315
   XX=    27.9185   YX=     2.5050   ZX=    -3.2397
   XY=     0.0426   YY=    23.6302   ZY=    -0.7006
   XZ=     1.2289   YZ=    -1.9070   ZZ=    36.7002
   Eigenvalues:    23.2057    28.0726    36.9706
  5  H    Isotropic =    29.9802   Anisotropy =     9.1131
   XX=    27.1777   YX=    -0.0438   ZX=    -3.3287
   XY=    -2.1876   YY=    31.4728   ZY=    -4.0221
   XZ=     0.6348   YZ=    -5.3193   ZZ=    31.2901
   Eigenvalues:    25.1844    28.7006    36.0556
  6  H    Isotropic =    29.6898   Anisotropy =    10.9346
   XX=    31.6484   YX=    -4.5505   ZX=    -3.3284
   XY=    -1.7865   YY=    28.1351   ZY=     0.7755
   XZ=    -6.9048   YZ=     1.9454   ZZ=    29.2858
   Eigenvalues:    24.8520    27.2378    36.9795
  7  C    Isotropic =   170.9586   Anisotropy =    30.9444
   XX=   184.7921   YX=     7.7440   ZX=    -9.3492
   XY=     3.0250   YY=   154.6691   ZY=    -1.4875
   XZ=   -11.2061   YZ=    -0.7636   ZZ=   173.4147
   Eigenvalues:   153.7100   167.5777   191.5882
  8  H    Isotropic =    30.9114   Anisotropy =     8.6616
   XX=    33.4785   YX=     4.0486   ZX=     2.0688
   XY=     3.5634   YY=    30.8569   ZY=     1.8009
   XZ=     0.5320   YZ=     1.4956   ZZ=    28.3989
   Eigenvalues:    27.4425    28.6059    36.6858
  9  H    Isotropic =    30.5407   Anisotropy =     8.2795
   XX=    32.9613   YX=    -4.3369   ZX=     0.0067
   XY=    -3.2199   YY=    31.4286   ZY=    -0.7692
   XZ=    -1.1898   YZ=     0.2644   ZZ=    27.2323
   Eigenvalues:    26.9832    28.5786    36.0604
 10  H    Isotropic =    31.6760   Anisotropy =     8.5174
   XX=    31.1704   YX=     0.3125   ZX=    -2.7233
   XY=     0.2775   YY=    28.0845   ZY=    -2.1929
   XZ=    -2.3279   YZ=    -2.0773   ZZ=    35.7731
   Eigenvalues:    27.4906    30.1832    37.3543
 End of Minotr Frequency-dependent properties file   721 does not exist.
 End of Minotr Frequency-dependent properties file   722 does not exist.
 Symmetrizing basis deriv contribution to polar:
 IMax=3 JMax=2 DiffMx= 0.00D+00
 G2DrvN: will do    11 centers at a time, making    1 passes doing MaxLOS=2.
 Calling FoFCou, ICntrl=  3107 FMM=F I1Cent=   0 AccDes= 0.00D+00.
 FoFDir/FoFCou used for L=0 through L=2.
 End of G2Drv Frequency-dependent properties file   721 does not exist.
 End of G2Drv Frequency-dependent properties file   722 does not exist.
          IDoAtm=1111111111
          Differentiating once with respect to electric field.
                with respect to dipole field.
          Differentiating once with respect to nuclear coordinates.
          Keep R1 ints in memory in canonical form, NReq=4276393.
          There are    33 degrees of freedom in the 1st order CPHF.  IDoFFX=5.
     30 vectors produced by pass  0 Test12= 2.72D-15 3.03D-09 XBig12= 2.22D+01 2.55D+00.
 AX will form    30 AO Fock derivatives at one time.
     30 vectors produced by pass  1 Test12= 2.72D-15 3.03D-09 XBig12= 3.90D+00 4.56D-01.
     30 vectors produced by pass  2 Test12= 2.72D-15 3.03D-09 XBig12= 2.92D-02 2.75D-02.
     30 vectors produced by pass  3 Test12= 2.72D-15 3.03D-09 XBig12= 4.32D-05 1.03D-03.
     30 vectors produced by pass  4 Test12= 2.72D-15 3.03D-09 XBig12= 3.61D-08 2.82D-05.
     10 vectors produced by pass  5 Test12= 2.72D-15 3.03D-09 XBig12= 1.50D-11 6.48D-07.
      3 vectors produced by pass  6 Test12= 2.72D-15 3.03D-09 XBig12= 7.53D-15 1.46D-08.
 Inverted reduced A of dimension   163 with in-core refinement.
 Isotropic polarizability for W=    0.000000       33.50 Bohr**3.
 Dipole-magnetic dipole polarizability for W=    0.000000:
                 1             2             3 
      1   0.224431D+01  0.150833D+01 -0.741802D+01
      2  -0.377819D+01  0.149103D+01  0.679279D+01
      3   0.253469D+01 -0.683580D+01 -0.362723D+01
 DQ contribution to OR G for W=    0.000000:
                 1             2             3 
      1   0.236968D+01  0.446741D+01 -0.184123D+02
      2  -0.370490D+01  0.232278D+01  0.184212D+02
      3   0.157201D+02 -0.190400D+02 -0.469246D+01
 Optical Rotation G' tensor for W=    0.000000:
                 1             2             3 
      1  -0.475678D+00  0.662776D+00  0.884305D+00
      2   0.662776D+00 -0.110764D+00 -0.665938D-01
      3   0.884305D+00 -0.665938D-01  0.694559D+00
 OR G Eigenvalues:    -1.2818     0.1641     1.2258  Iso=    -0.0360
 Eigenvectors:
   (1)   0.798183  -0.472983  -0.373084
   (2)   0.312851   0.854707  -0.414248
   (3)   0.514810   0.213926   0.830185
 w=    0.000000 a.u., Optical Rotation Beta=     -0.0360 au.
 Molar Mass =     58.0798 grams/mole, [Alpha]D (static) =      -23.98 deg.
 AAT (total):
 -0.0174  0.0086  0.1231
 -0.0745 -0.0149  0.2308
 -0.1387 -0.0226  0.0569
  0.0171 -0.0609 -0.0244
  0.1433  0.0261 -0.3186
 -0.0287  0.1172 -0.0867
 -0.1969  0.1142 -0.2083
 -0.1050 -0.0102  0.2375
  0.5337 -0.4006  0.2253
  0.0335  0.0340  0.0171
  0.0096 -0.0187  0.0268
 -0.0517  0.0504 -0.0061
  0.0319 -0.0433 -0.0506
  0.0603  0.0847  0.0392
 -0.0779 -0.0469 -0.0975
  0.0801  0.0759  0.0140
 -0.0091 -0.0293 -0.0207
 -0.0570  0.0054 -0.0661
  0.0093 -0.0310  0.0104
 -0.0781  0.0022 -0.1386
 -0.0566  0.1665 -0.0223
 -0.0119  0.0967 -0.1789
 -0.0789  0.0682 -0.0028
  0.0810 -0.0404 -0.0515
  0.0133  0.0068  0.2087
 -0.0396 -0.0373 -0.0465
 -0.1034 -0.0541  0.0172
  0.0022 -0.1367 -0.0209
  0.1236 -0.0487  0.0157
  0.0294  0.1472  0.0486
 End of Minotr Frequency-dependent properties file   721 does not exist.
 End of Minotr Frequency-dependent properties file   722 does not exist.

 **********************************************************************

            Population analysis using the SCF density.

 **********************************************************************

 Orbital symmetries:
       Occupied  (A) (A) (A) (A) (A) (A) (A) (A) (A) (A) (A) (A)
                 (A) (A) (A) (A)
       Virtual   (A) (A) (A) (A) (A) (A) (A) (A) (A) (A) (A) (A)
                 (A) (A) (A) (A) (A) (A) (A) (A) (A) (A) (A) (A)
                 (A) (A) (A) (A) (A) (A) (A) (A) (A) (A) (A) (A)
                 (A) (A) (A) (A) (A) (A) (A) (A) (A) (A) (A) (A)
                 (A) (A) (A) (A) (A) (A) (A) (A)
 The electronic state is 1-A.
 Alpha  occ. eigenvalues --  -19.15086 -10.24149 -10.23386 -10.18497  -1.06363
 Alpha  occ. eigenvalues --   -0.74404  -0.65771  -0.59400  -0.50366  -0.46492
 Alpha  occ. eigenvalues --   -0.42488  -0.40236  -0.37304  -0.36584  -0.29790
 Alpha  occ. eigenvalues --   -0.26247
 Alpha virt. eigenvalues --    0.10580   0.11029   0.12717   0.13313   0.14206
 Alpha virt. eigenvalues --    0.17319   0.17734   0.18254   0.25845   0.31858
 Alpha virt. eigenvalues --    0.47513   0.51508   0.54042   0.57387   0.58789
 Alpha virt. eigenvalues --    0.62549   0.65400   0.70923   0.75931   0.81549
 Alpha virt. eigenvalues --    0.86742   0.86961   0.89208   0.91603   0.94023
 Alpha virt. eigenvalues --    0.95939   0.98558   1.03081   1.06008   1.25667
 Alpha virt. eigenvalues --    1.39063   1.43952   1.47440   1.60663   1.66319
 Alpha virt. eigenvalues --    1.74967   1.80685   1.89047   1.97881   2.02088
 Alpha virt. eigenvalues --    2.10974   2.13941   2.16006   2.26989   2.30023
 Alpha virt. eigenvalues --    2.32283   2.40624   2.51124   2.58528   2.70472
 Alpha virt. eigenvalues --    2.84821   2.92962   3.76963   4.15933   4.26177
 Alpha virt. eigenvalues --    4.45501
          Condensed to atoms (all electrons):
              1          2          3          4          5          6
     1  C    4.760474   0.332648   0.162524   0.372503  -0.019027  -0.019312
     2  C    0.332648   4.937327   0.169420  -0.029576   0.366987   0.363213
     3  O    0.162524   0.169420   8.234053  -0.031775  -0.032108  -0.028052
     4  H    0.372503  -0.029576  -0.031775   0.601753   0.001311  -0.000306
     5  H   -0.019027   0.366987  -0.032108   0.001311   0.585382  -0.050292
     6  H   -0.019312   0.363213  -0.028052  -0.000306  -0.050292   0.585820
     7  C    0.384919  -0.028281  -0.035300  -0.058474  -0.001015   0.000988
     8  H   -0.024349  -0.003013   0.003269   0.002149  -0.000289   0.000246
     9  H   -0.030226   0.004487  -0.002037  -0.002846   0.000082  -0.000141
    10  H   -0.031241  -0.003680   0.001688   0.004862   0.002696   0.000141
              7          8          9         10
     1  C    0.384919  -0.024349  -0.030226  -0.031241
     2  C   -0.028281  -0.003013   0.004487  -0.003680
     3  O   -0.035300   0.003269  -0.002037   0.001688
     4  H   -0.058474   0.002149  -0.002846   0.004862
     5  H   -0.001015  -0.000289   0.000082   0.002696
     6  H    0.000988   0.000246  -0.000141   0.000141
     7  C    5.108011   0.350559   0.371830   0.370414
     8  H    0.350559   0.578449  -0.031736  -0.025048
     9  H    0.371830  -0.031736   0.558374  -0.029336
    10  H    0.370414  -0.025048  -0.029336   0.551396
 Mulliken atomic charges:
              1
     1  C    0.111086
     2  C   -0.109532
     3  O   -0.441683
     4  H    0.140398
     5  H    0.146272
     6  H    0.147693
     7  C   -0.463653
     8  H    0.149760
     9  H    0.161549
    10  H    0.158109
 Sum of Mulliken atomic charges =   0.00000
 Mulliken charges with hydrogens summed into heavy atoms:
              1
     1  C    0.251484
     2  C    0.184433
     3  O   -0.441683
     7  C    0.005766
 Sum of Mulliken charges with hydrogens summed into heavy atoms =   0.00000
 APT atomic charges:
              1
     1  C    0.382155
     2  C    0.275425
     3  O   -0.536756
     4  H   -0.057380
     5  H   -0.026893
     6  H   -0.034280
     7  C    0.042368
     8  H   -0.018601
     9  H   -0.018186
    10  H   -0.007853
 Sum of APT charges=   0.00000
 APT Atomic charges with hydrogens summed into heavy atoms:
              1
     1  C    0.324776
     2  C    0.214252
     3  O   -0.536756
     4  H    0.000000
     5  H    0.000000
     6  H    0.000000
     7  C   -0.002272
     8  H    0.000000
     9  H    0.000000
    10  H    0.000000
 Sum of APT charges=   0.00000
 Electronic spatial extent (au):  <R**2>=            267.9945
 Charge=              0.0000 electrons
 Dipole moment (field-independent basis, Debye):
    X=              0.8494    Y=              1.6449    Z=              0.6721  Tot=              1.9695
 Quadrupole moment (field-independent basis, Debye-Ang):
   XX=            -24.1055   YY=            -25.9282   ZZ=            -23.9477
   XY=             -2.2380   XZ=             -0.3979   YZ=             -1.0263
 Traceless Quadrupole moment (field-independent basis, Debye-Ang):
   XX=              0.5550   YY=             -1.2677   ZZ=              0.7128
   XY=             -2.2380   XZ=             -0.3979   YZ=             -1.0263
 Octapole moment (field-independent basis, Debye-Ang**2):
  XXX=             -3.8109  YYY=             -1.8762  ZZZ=             -0.3266  XYY=              0.3730
  XXY=              1.2503  XXZ=              0.8481  XZZ=             -1.1844  YZZ=             -0.2580
  YYZ=             -0.2740  XYZ=              0.4065
 Hexadecapole moment (field-independent basis, Debye-Ang**3):
 XXXX=           -215.1210 YYYY=            -72.7022 ZZZZ=            -53.4681 XXXY=             -1.3164
 XXXZ=              0.0344 YYYX=             -0.1186 YYYZ=             -0.1432 ZZZX=              0.1193
 ZZZY=             -1.1938 XXYY=            -46.8614 XXZZ=            -45.1820 YYZZ=            -21.2911
 XXYZ=              1.2794 YYXZ=              0.8242 ZZXY=              0.3980
 N-N= 1.244011109126D+02 E-N=-6.986738324692D+02  KE= 1.913363436515D+02
  Exact polarizability:  39.158  -3.602  30.003   0.873  -1.828  31.336
 Approx polarizability:  48.833  -3.381  44.421   3.270  -1.038  42.839
 Calling FoFJK, ICntrl=    100127 FMM=F ISym2X=0 I1Cent= 0 IOpClX= 0 NMat=1 NMatS=1 NMatT=0.
 Full mass-weighted force constant matrix:
 Low frequencies ---   -0.0005    0.0004    0.0011    4.3666   15.3855   17.3331
 Low frequencies ---  215.8957  364.4902  410.8229
 Harmonic frequencies (cm**-1), IR intensities (KM/Mole), Raman scattering
 activities (A**4/AMU), depolarization ratios for plane and unpolarized
 incident light, reduced masses (AMU), force constants (mDyne/A),
 Dipole strengths (10**-40 esu**2-cm**2),
 Rotational strengths (10**-44 esu**2-cm**2),
 and normal coordinates:
                     1                      2                      3
                     A                      A                      A
 Frequencies --   215.8821               364.4858               410.8175
 Red. masses --     1.0947                 2.3626                 2.4125
 Frc consts  --     0.0301                 0.1849                 0.2399
 IR Inten    --     0.5211                 3.6164                 4.4318
 Dip. str.   --     9.6288                39.5829                43.0369
 Rot. str.   --    -3.7904                12.3088                 2.3129
  Atom  AN      X      Y      Z        X      Y      Z        X      Y      Z
     1   6     0.00  -0.05   0.00     0.01  -0.17   0.01    -0.04   0.00   0.20
     2   6     0.02   0.02   0.04     0.18   0.03  -0.07     0.09   0.01  -0.03
     3   8    -0.02   0.02  -0.04    -0.14  -0.05   0.07     0.15   0.02  -0.05
     4   1     0.00  -0.10  -0.01     0.01  -0.14   0.01    -0.09  -0.07   0.19
     5   1     0.03   0.06   0.07     0.43  -0.09  -0.13     0.39   0.08   0.05
     6   1     0.04   0.01   0.06     0.18   0.31  -0.19    -0.12  -0.05  -0.28
     7   6     0.00   0.01   0.01    -0.03   0.13  -0.01    -0.20  -0.02  -0.06
     8   1    -0.24   0.40  -0.35    -0.25   0.18   0.18     0.01  -0.01  -0.33
     9   1     0.27   0.21   0.47     0.24   0.27  -0.25    -0.21  -0.05  -0.24
    10   1    -0.04  -0.52  -0.11    -0.11   0.39   0.06    -0.60  -0.10  -0.04
                     4                      5                      6
                     A                      A                      A
 Frequencies --   783.3009               856.4732               913.3983
 Red. masses --     3.3869                 3.0233                 1.2660
 Frc consts  --     1.2244                 1.3066                 0.6223
 IR Inten    --     6.8103                35.7695                 2.6299
 Dip. str.   --    34.6853               166.6121                11.4864
 Rot. str.   --    -8.4538                -7.5768               -21.4459
  Atom  AN      X      Y      Z        X      Y      Z        X      Y      Z
     1   6    -0.08  -0.07  -0.21     0.04   0.22   0.01    -0.04   0.04  -0.02
     2   6     0.08   0.20   0.05     0.19  -0.10   0.05     0.00   0.04   0.07
     3   8     0.19  -0.10   0.05    -0.13  -0.14  -0.13    -0.01  -0.08   0.01
     4   1     0.04   0.25  -0.13    -0.05   0.33   0.02     0.21  -0.22  -0.08
     5   1    -0.25   0.04  -0.06     0.03   0.04   0.14     0.51   0.13   0.17
     6   1     0.29   0.10   0.33     0.55   0.12   0.43    -0.32   0.01  -0.34
     7   6    -0.21  -0.04   0.02    -0.08   0.05   0.05     0.01   0.06  -0.05
     8   1    -0.47  -0.04   0.34     0.17  -0.06  -0.06     0.13  -0.10   0.06
     9   1    -0.19   0.00   0.22    -0.35  -0.10   0.14    -0.29  -0.09   0.26
    10   1     0.14   0.04   0.01    -0.08  -0.08   0.02     0.38  -0.10  -0.12
                     7                      8                      9
                     A                      A                      A
 Frequencies --   986.1110              1047.3061              1139.9937
 Red. masses --     2.5043                 1.1460                 1.4251
 Frc consts  --     1.4348                 0.7406                 1.0912
 IR Inten    --    14.6890                 7.1618                 7.0190
 Dip. str.   --    59.4258                27.2809                24.5629
 Rot. str.   --    28.8688                 1.6540                 3.1437
  Atom  AN      X      Y      Z        X      Y      Z        X      Y      Z
     1   6    -0.14  -0.04   0.01    -0.02   0.03   0.03    -0.03   0.09   0.03
     2   6    -0.02   0.20   0.04     0.01   0.00   0.00    -0.09  -0.02   0.07
     3   8     0.01  -0.17  -0.03    -0.02  -0.03  -0.01     0.04  -0.03  -0.05
     4   1    -0.44   0.18   0.06    -0.03   0.56   0.14    -0.04  -0.13  -0.01
     5   1    -0.12   0.09  -0.02     0.16   0.37   0.26     0.31  -0.29  -0.06
     6   1    -0.03   0.11   0.05    -0.14  -0.32  -0.07     0.12   0.72   0.06
     7   6     0.18   0.04   0.03     0.02  -0.07  -0.05     0.02  -0.08  -0.03
     8   1     0.47   0.07  -0.39    -0.31   0.05   0.16    -0.27   0.06   0.09
     9   1     0.13  -0.02  -0.32     0.33   0.12  -0.07     0.32   0.10  -0.07
    10   1    -0.31  -0.07   0.04     0.13   0.16  -0.01     0.05   0.16   0.02
                    10                     11                     12
                     A                      A                      A
 Frequencies --  1159.3918              1173.2886              1198.5013
 Red. masses --     1.3706                 1.7223                 1.6456
 Frc consts  --     1.0854                 1.3969                 1.3927
 IR Inten    --     0.8482                 5.3428                 1.4824
 Dip. str.   --     2.9187                18.1664                 4.9343
 Rot. str.   --     1.4052                10.4731                -1.6285
  Atom  AN      X      Y      Z        X      Y      Z        X      Y      Z
     1   6     0.04   0.01   0.04    -0.09  -0.13   0.11    -0.05   0.07   0.15
     2   6     0.07   0.06   0.11     0.00  -0.05   0.00     0.04   0.07  -0.09
     3   8    -0.04  -0.01  -0.07     0.03   0.06  -0.03    -0.01  -0.06   0.00
     4   1     0.13   0.17   0.08    -0.22   0.45   0.24     0.06  -0.64   0.01
     5   1    -0.37  -0.58  -0.36    -0.02  -0.19  -0.09    -0.46   0.20  -0.06
     6   1    -0.37  -0.13  -0.37     0.24   0.21   0.21     0.17  -0.18   0.17
     7   6    -0.01  -0.02  -0.02     0.02   0.08  -0.11     0.01  -0.02  -0.09
     8   1    -0.10   0.00   0.08     0.17  -0.15   0.08    -0.13  -0.03   0.11
     9   1     0.03   0.02   0.04    -0.18  -0.02   0.21     0.13   0.07   0.11
    10   1     0.04   0.04  -0.01     0.51  -0.09  -0.19     0.32   0.12  -0.08
                    13                     14                     15
                     A                      A                      A
 Frequencies --  1304.9788              1430.0046              1463.6797
 Red. masses --     1.5871                 1.2728                 1.6077
 Frc consts  --     1.5924                 1.5335                 2.0293
 IR Inten    --     4.0909                 4.6889                19.6727
 Dip. str.   --    12.5061                13.0811                53.6199
 Rot. str.   --     5.6465                -2.4442                -9.4150
  Atom  AN      X      Y      Z        X      Y      Z        X      Y      Z
     1   6     0.10  -0.07   0.08     0.09  -0.01   0.02     0.18  -0.02   0.00
     2   6    -0.11   0.07  -0.07    -0.03   0.01  -0.01    -0.04   0.03   0.00
     3   8    -0.02  -0.06  -0.05     0.00  -0.02   0.00    -0.01  -0.04   0.00
     4   1     0.82   0.26   0.16    -0.38  -0.01   0.02    -0.57  -0.01  -0.01
     5   1    -0.11   0.22   0.02    -0.10   0.14   0.06    -0.15   0.21   0.10
     6   1     0.04   0.31   0.05    -0.06   0.16  -0.09    -0.15   0.23  -0.19
     7   6    -0.02   0.02   0.03     0.08   0.03  -0.08    -0.13   0.00   0.01
     8   1     0.07  -0.04   0.02    -0.35   0.02   0.43     0.33  -0.26  -0.10
     9   1    -0.06  -0.01   0.02    -0.35  -0.19   0.30     0.29   0.25   0.07
    10   1    -0.08  -0.08   0.02    -0.45  -0.06  -0.03     0.31   0.01  -0.03
                    16                     17                     18
                     A                      A                      A
 Frequencies --  1513.9869              1527.6102              1559.2790
 Red. masses --     1.0473                 1.0503                 1.3788
 Frc consts  --     1.4144                 1.4440                 1.9752
 IR Inten    --     3.5756                 4.8130                 4.9923
 Dip. str.   --     9.4219                12.5692                12.7728
 Rot. str.   --    -0.7022                 0.5767                -5.2285
  Atom  AN      X      Y      Z        X      Y      Z        X      Y      Z
     1   6    -0.02   0.03   0.00     0.03   0.00   0.02     0.10   0.00   0.03
     2   6     0.00   0.01   0.00     0.00  -0.01   0.00    -0.09   0.10  -0.03
     3   8     0.00   0.00   0.00     0.00  -0.01   0.00    -0.02  -0.02  -0.01
     4   1     0.04  -0.04  -0.02    -0.11  -0.01   0.02    -0.18  -0.02   0.03
     5   1     0.09  -0.08  -0.04    -0.12   0.09   0.05     0.53  -0.34  -0.24
     6   1     0.03  -0.10   0.07    -0.04   0.12  -0.09     0.10  -0.49   0.43
     7   6    -0.01   0.05  -0.01     0.00   0.02   0.05    -0.02   0.00   0.00
     8   1     0.08  -0.33   0.50    -0.34   0.30  -0.05    -0.10   0.09  -0.05
     9   1     0.29   0.18  -0.26    -0.25  -0.20  -0.60    -0.11  -0.06  -0.02
    10   1    -0.15  -0.61  -0.14     0.40  -0.33  -0.08     0.11   0.04   0.00
                    19                     20                     21
                     A                      A                      A
 Frequencies --  3050.3857              3098.1212              3107.5127
 Red. masses --     1.0359                 1.0509                 1.0889
 Frc consts  --     5.6793                 5.9429                 6.1952
 IR Inten    --    18.6746                28.8938                14.8865
 Dip. str.   --    24.4232                37.2060                19.1111
 Rot. str.   --    -0.7421                 5.0780                -2.8237
  Atom  AN      X      Y      Z        X      Y      Z        X      Y      Z
     1   6     0.00   0.00   0.00     0.00   0.00  -0.02     0.00   0.02  -0.08
     2   6     0.00   0.00   0.00    -0.04   0.04  -0.01     0.01  -0.01   0.01
     3   8     0.00   0.00   0.00     0.00   0.00   0.00     0.00   0.00   0.00
     4   1     0.00   0.01  -0.04     0.00  -0.05   0.22    -0.01  -0.19   0.88
     5   1     0.00  -0.01   0.02    -0.07  -0.37   0.58     0.03   0.12  -0.19
     6   1     0.00   0.00  -0.01     0.51  -0.15  -0.42    -0.09   0.02   0.07
     7   6    -0.05  -0.01   0.01     0.00   0.00   0.01     0.01   0.00   0.03
     8   1     0.33   0.47   0.29    -0.01  -0.02  -0.01    -0.06  -0.09  -0.05
     9   1     0.29  -0.51   0.05    -0.02   0.03   0.00    -0.03   0.05   0.00
    10   1    -0.05   0.11  -0.48    -0.01   0.01  -0.06    -0.03   0.07  -0.31
                    22                     23                     24
                     A                      A                      A
 Frequencies --  3113.3292              3134.5181              3180.4658
 Red. masses --     1.1018                 1.1017                 1.1210
 Frc consts  --     6.2921                 6.3778                 6.6807
 IR Inten    --    24.2627                34.5929                40.3413
 Dip. str.   --    31.0901                44.0275                50.6018
 Rot. str.   --     5.6354                -6.6522                 5.6655
  Atom  AN      X      Y      Z        X      Y      Z        X      Y      Z
     1   6     0.00   0.00   0.00     0.00  -0.01   0.03     0.00   0.00   0.01
     2   6     0.00   0.00   0.00     0.00   0.00  -0.01    -0.05  -0.02   0.08
     3   8     0.00   0.00   0.00     0.00   0.00   0.00     0.00   0.00   0.00
     4   1     0.00   0.01  -0.04     0.01   0.07  -0.34     0.00   0.03  -0.10
     5   1     0.00  -0.01   0.02    -0.01  -0.03   0.05     0.05   0.37  -0.57
     6   1     0.01   0.00  -0.01    -0.04   0.01   0.03     0.55  -0.16  -0.43
     7   6     0.00   0.09   0.02     0.03  -0.02   0.08     0.00   0.00   0.00
     8   1    -0.36  -0.48  -0.31    -0.16  -0.24  -0.13    -0.01  -0.01  -0.01
     9   1     0.38  -0.62   0.07    -0.17   0.29  -0.01    -0.01   0.01   0.00
    10   1     0.00   0.02  -0.02    -0.07   0.18  -0.78     0.00   0.01  -0.04

 -------------------
 - Thermochemistry -
 -------------------
 Temperature   298.150 Kelvin.  Pressure   1.00000 Atm.
 Atom     1 has atomic number  6 and mass  12.00000
 Atom     2 has atomic number  6 and mass  12.00000
 Atom     3 has atomic number  8 and mass  15.99491
 Atom     4 has atomic number  1 and mass   1.00783
 Atom     5 has atomic number  1 and mass   1.00783
 Atom     6 has atomic number  1 and mass   1.00783
 Atom     7 has atomic number  6 and mass  12.00000
 Atom     8 has atomic number  1 and mass   1.00783
 Atom     9 has atomic number  1 and mass   1.00783
 Atom    10 has atomic number  1 and mass   1.00783
 Molecular mass:    58.04186 amu.
 Principal axes and moments of inertia in atomic units:
                           1         2         3
     Eigenvalues --    99.61715 272.42307 305.37089
           X            0.99885  -0.04587  -0.01414
           Y            0.04395   0.99242  -0.11480
           Z            0.01930   0.11405   0.99329
 This molecule is an asymmetric top.
 Rotational symmetry number  1.
 Rotational temperatures (Kelvin)      0.86947     0.31794     0.28363
 Rotational constants (GHZ):          18.11677     6.62477     5.91000
 Zero-point vibrational energy     225692.4 (Joules/Mol)
                                   53.94178 (Kcal/Mol)
 Warning -- explicit consideration of   3 degrees of freedom as
           vibrations may cause significant error
 Vibrational temperatures:    310.61   524.41   591.07  1126.99  1232.27
          (Kelvin)           1314.17  1418.79  1506.84  1640.19  1668.10
                             1688.10  1724.37  1877.57  2057.46  2105.91
                             2178.29  2197.89  2243.45  4388.82  4457.50
                             4471.01  4479.38  4509.87  4575.98
 
 Zero-point correction=                           0.085962 (Hartree/Particle)
 Thermal correction to Energy=                    0.090355
 Thermal correction to Enthalpy=                  0.091300
 Thermal correction to Gibbs Free Energy=         0.059599
 Sum of electronic and zero-point Energies=           -193.022556
 Sum of electronic and thermal Energies=              -193.018163
 Sum of electronic and thermal Enthalpies=            -193.017218
 Sum of electronic and thermal Free Energies=         -193.048919
 
                     E (Thermal)             CV                S
                      KCal/Mol        Cal/Mol-Kelvin    Cal/Mol-Kelvin
 Total                   56.699             14.651             66.720
 Electronic               0.000              0.000              0.000
 Translational            0.889              2.981             38.096
 Rotational               0.889              2.981             23.631
 Vibrational             54.921              8.689              4.993
 Vibration     1          0.645              1.817              1.993
 Vibration     2          0.738              1.545              1.103
 Vibration     3          0.775              1.447              0.924
                       Q            Log10(Q)             Ln(Q)
 Total Bot       0.385960D-27        -27.413457        -63.121818
 Total V=0       0.133688D+13         12.126092         27.921360
 Vib (Bot)       0.681438D-39        -39.166574        -90.184369
 Vib (Bot)    1  0.917827D+00         -0.037239         -0.085746
 Vib (Bot)    2  0.501366D+00         -0.299845         -0.690418
 Vib (Bot)    3  0.430395D+00         -0.366132         -0.843051
 Vib (V=0)       0.236035D+01          0.372976          0.858809
 Vib (V=0)    1  0.154518D+01          0.188980          0.435142
 Vib (V=0)    2  0.120807D+01          0.082093          0.189027
 Vib (V=0)    3  0.115973D+01          0.064356          0.148185
 Electronic      0.100000D+01          0.000000          0.000000
 Translational   0.173807D+08          7.240067         16.670871
 Rotational      0.325874D+05          4.513049         10.391680
 ***** Axes restored to original set *****
 -------------------------------------------------------------------
 Center     Atomic                   Forces (Hartrees/Bohr)
 Number     Number              X              Y              Z
 -------------------------------------------------------------------
      1        6          -0.000067848    0.000061632   -0.000074266
      2        6           0.000008138    0.000053527    0.000082426
      3        8          -0.000088658   -0.000109865   -0.000048495
      4        1           0.000040994    0.000014724   -0.000004251
      5        1          -0.000006458   -0.000025684   -0.000003560
      6        1           0.000030569    0.000004790   -0.000016170
      7        6           0.000222476    0.000001754    0.000006520
      8        1          -0.000046655    0.000005091    0.000012733
      9        1          -0.000072705   -0.000002145    0.000032538
     10        1          -0.000019853   -0.000003824    0.000012525
 -------------------------------------------------------------------
 Cartesian Forces:  Max     0.000222476 RMS     0.000060165

 GradGradGradGradGradGradGradGradGradGradGradGradGradGradGradGradGradGrad
 Berny optimization.
 Search for a local minimum.
 Step number   1 out of a maximum of    2
 All quantities printed in internal units (Hartrees-Bohrs-Radians)
 Second derivative matrix not updated -- analytic derivatives used.
 ITU=  0
     Eigenvalues ---    0.00221   0.01125   0.01682   0.04105   0.04825
     Eigenvalues ---    0.05657   0.06820   0.09584   0.10550   0.11314
     Eigenvalues ---    0.13013   0.13528   0.16141   0.19455   0.24939
     Eigenvalues ---    0.28737   0.45062   0.52910   0.61961   0.74871
     Eigenvalues ---    0.76108   0.84165   0.92491   1.09158
 Angle between quadratic step and forces=  69.15 degrees.
 Linear search not attempted -- first point.
 TrRot= -0.000092  0.000017 -0.000174 -0.000014  0.000007 -0.000014
 Variable       Old X    -DE/DX   Delta X   Delta X   Delta X     New X
                                 (Linear)    (Quad)   (Total)
    X1        0.28740  -0.00007   0.00000   0.00001  -0.00008   0.28732
    Y1       -0.07146   0.00006   0.00000   0.00005   0.00006  -0.07140
    Z1        0.92526  -0.00007   0.00000  -0.00118  -0.00136   0.92390
    X2       -1.97480   0.00001   0.00000  -0.00033  -0.00039  -1.97519
    Y2        1.16249   0.00005   0.00000   0.00016   0.00023   1.16272
    Z2       -0.11370   0.00008   0.00000   0.00039   0.00023  -0.11346
    X3       -1.56230  -0.00009   0.00000  -0.00083  -0.00097  -1.56327
    Y3       -1.49148  -0.00011   0.00000  -0.00016  -0.00009  -1.49157
    Z3       -0.45959  -0.00005   0.00000  -0.00031  -0.00047  -0.46006
    X4        0.29328   0.00004   0.00000   0.00098   0.00090   0.29418
    Y4       -0.48437   0.00001   0.00000   0.00010   0.00011  -0.48427
    Z4        2.94876   0.00000   0.00000  -0.00115  -0.00133   2.94743
    X5       -1.80980  -0.00001   0.00000  -0.00178  -0.00182  -1.81162
    Y5        2.31010  -0.00003   0.00000  -0.00021  -0.00014   2.30996
    Z5       -1.81855   0.00000   0.00000   0.00007  -0.00009  -1.81864
    X6       -3.54427   0.00003   0.00000   0.00073   0.00069  -3.54358
    Y6        1.66164   0.00000   0.00000   0.00028   0.00039   1.66203
    Z6        1.12583  -0.00002   0.00000   0.00154   0.00139   1.12722
    X7        2.85557   0.00022   0.00000   0.00082   0.00073   2.85630
    Y7        0.19015   0.00000   0.00000   0.00000  -0.00007   0.19008
    Z7       -0.28091   0.00001   0.00000  -0.00004  -0.00023  -0.28114
    X8        3.94880  -0.00005   0.00000  -0.00083  -0.00087   3.94792
    Y8        1.69227   0.00001   0.00000   0.00067   0.00058   1.69285
    Z8        0.63787   0.00001   0.00000   0.00066   0.00046   0.63833
    X9        3.92688  -0.00007   0.00000   0.00003  -0.00011   3.92677
    Y9       -1.57443   0.00000   0.00000  -0.00011  -0.00021  -1.57463
    Z9       -0.10908   0.00003   0.00000   0.00208   0.00188  -0.10719
   X10        2.67447  -0.00002   0.00000   0.00201   0.00192   2.67639
   Y10        0.63961   0.00000   0.00000  -0.00081  -0.00087   0.63874
   Z10       -2.29206   0.00001   0.00000  -0.00029  -0.00048  -2.29254
         Item               Value     Threshold  Converged?
 Maximum Force            0.000222     0.000450     YES
 RMS     Force            0.000060     0.000300     YES
 Maximum Displacement     0.001919     0.001800     NO 
 RMS     Displacement     0.000856     0.001200     YES
 Predicted change in Energy=-2.799832D-07
 GradGradGradGradGradGradGradGradGradGradGradGradGradGradGradGradGradGrad

 1|1|UNPC-X500|Freq|RB3LYP|6-31G(d)|C3H6O1|SOBEREVA|18-Mar-2014|0||# b3
 lyp/6-31g(d) freq=vcd||b3lyp/6-31g(d) opted||0,1|C,0.152086,-0.037817,
 0.489624|C,-1.045018,0.615161,-0.060166|O,-0.826733,-0.789257,-0.24320
 2|H,0.155196,-0.256318,1.560414|H,-0.957703,1.222452,-0.962333|H,-1.87
 5545,0.879302,0.595764|C,1.511103,0.100621,-0.148651|H,2.089613,0.8955
 1,0.337545|H,2.078013,-0.83315,-0.057721|H,1.41527,0.338468,-1.212906|
 |Version=IA32W-G09RevB.01|State=1-A|HF=-193.1085181|RMSD=4.041e-009|RM
 SF=6.016e-005|ZeroPoint=0.0859617|Thermal=0.0903555|Dipole=0.3341611,0
 .6471609,0.2644231|DipoleDeriv=0.5003212,0.0591715,0.019962,0.1359682,
 0.25697,0.0474078,-0.0138295,-0.0112655,0.3891747,0.1755243,0.0133054,
 -0.08193,-0.0937569,0.3664827,-0.0426194,-0.0894025,0.0168328,0.284269
 1,-0.5093353,-0.1452613,-0.0531961,-0.1582694,-0.695778,-0.1505075,-0.
 0562409,-0.1486733,-0.4051549,-0.0524413,-0.0117274,0.010049,-0.006407
 4,0.0508731,0.0523414,-0.0075015,0.0312164,-0.1705709,0.0307953,0.0128
 417,0.051491,0.0392444,-0.0376318,0.0753399,0.0197663,0.1003021,-0.073
 843,-0.0838635,0.0800439,0.0842276,0.0595252,0.006107,0.0043235,0.0941
 528,-0.015554,-0.025083,-0.0139534,-0.030449,0.0373387,0.0136597,0.116
 6486,0.0245919,0.0541941,0.0374049,0.0244099,-0.0362809,-0.0617384,-0.
 0302755,-0.0946974,-0.0391047,-0.0674288,-0.0381678,-0.0769369,0.01958
 25,-0.0426607,0.0734165,0.0000327,0.1030072,-0.0802277,0.0132348,0.022
 2923,0.0235628,0.0683311,0.0318943,0.010397,-0.0376994,0.0017265,0.055
 6608,0.0433164,0.0147368,0.0431106,-0.1111155|Polar=39.1575632,-3.6021
 467,30.002755,0.8734986,-1.828108,31.3355805|AAT=-0.0174013,0.0085671,
 0.1231128,-0.0744717,-0.0149244,0.2308019,-0.1386889,-0.0225757,0.0569
 438,0.017054,-0.0608507,-0.0244133,0.1432918,0.0261342,-0.3186416,-0.0
 287426,0.1171728,-0.0866948,-0.1969204,0.114238,-0.2083167,-0.1050243,
 -0.0102219,0.2374935,0.5336954,-0.4005797,0.2253195,0.0334671,0.034032
 3,0.0170893,0.0096068,-0.0186932,0.0267512,-0.0517087,0.0504205,-0.006
 0909,0.0319318,-0.0433247,-0.0506251,0.0602545,0.0847011,0.0391637,-0.
 0779429,-0.0468822,-0.097472,0.080098,0.0758977,0.0139738,-0.0090649,-
 0.0293072,-0.0207115,-0.0570418,0.0053561,-0.0661113,0.0093231,-0.0310
 088,0.0104156,-0.0780744,0.0022257,-0.1385859,-0.0565943,0.1664859,-0.
 022319,-0.0118779,0.0966835,-0.1789462,-0.0789275,0.0681744,-0.0027986
 ,0.0809964,-0.0404204,-0.0515394,0.0132789,0.0068192,0.2087029,-0.0395
 659,-0.0372906,-0.0465181,-0.1034289,-0.0541381,0.0172292,0.0022131,-0
 .1367466,-0.020939,0.1236371,-0.0487156,0.015744,0.0294496,0.1471778,0
 .0485869|GPTens=2.2443109,-3.7781861,2.5346934,1.5083342,1.4910349,-6.
 835804,-7.418018,6.7927904,-3.6272288|OptRot=-0.4756779,0.6627764,0.88
 4305,0.6627764,-0.110764,-0.0665939,0.884305,-0.0665939,0.6945589|DQPo
 lar=17.6266807,-9.4859025,-8.1407782,18.4647368,9.3720226,-2.2049563,2
 .7446766,1.1721361,-3.9168127,9.5540869,2.4874999,-4.8556229,5.6671183
 ,-9.3230349,3.6559167,0.1178237,10.2804326,14.4954567|PG=C01 [X(C3H6O1
 )]|NImag=0||0.60698262,-0.03451451,0.28555464,0.03697445,-0.09044337,0
 .62966792,-0.21077129,0.08060807,-0.07137041,0.53120614,0.12874720,-0.
 04769318,0.08041356,-0.16161855,0.45410918,-0.06122623,0.05497133,-0.0
 8781570,-0.10976593,-0.13875432,0.55730319,-0.11798997,-0.05436011,-0.
 04459970,-0.03365892,-0.00045784,0.01763662,0.17666098,-0.09177127,-0.
 08995808,-0.06101841,0.03875510,-0.22902127,-0.01475133,0.05173151,0.3
 5409700,-0.05679089,-0.04141179,-0.10922202,0.02670486,-0.03525924,-0.
 05715487,0.05802526,0.08848213,0.15002769,-0.05243257,-0.00251022,0.01
 296178,-0.00234279,0.00087664,-0.02019267,-0.00652326,0.00353856,-0.02
 105865,0.06335862,0.00178752,-0.05864961,0.06593641,-0.00484055,-0.007
 53361,0.02299071,-0.00444238,0.00674420,-0.03090846,0.00407076,0.05463
 037,0.01193077,0.06181233,-0.30471857,-0.00033943,-0.00330340,-0.00307
 177,-0.01265836,-0.00163707,-0.01284577,-0.00112601,-0.06079160,0.3286
 9100,0.00469680,0.01441127,-0.02383208,-0.05455829,-0.00829779,0.02926
 852,-0.00042702,-0.00077032,0.00201978,-0.00164781,0.00321363,0.000502
 84,0.05016796,-0.00043918,-0.00579720,-0.00544806,-0.01114709,-0.11591
 594,0.12025920,0.00637337,-0.02675932,0.02570231,-0.00096344,0.0014255
 8,-0.00010707,0.00526616,0.13937601,0.00469434,0.00516221,-0.01186009,
 0.02798583,0.12533237,-0.25169462,-0.00420767,-0.00444119,0.01677806,-
 0.00076808,0.00182217,0.00089238,-0.02731814,-0.13571796,0.25612911,-0
 .01343437,0.00239756,0.01870946,-0.21099258,0.04536814,0.13340485,0.00
 636010,0.00597732,-0.00800073,0.00097030,-0.00063726,-0.00056932,0.000
 27640,0.00011314,-0.00097674,0.21838940,-0.00159115,-0.00824952,0.0010
 3631,0.03927522,-0.05537262,-0.02597915,0.03130915,-0.01549448,-0.0172
 3145,0.00092978,0.00056077,-0.00005785,-0.01245234,0.00748604,0.008784
 88,-0.05662163,0.06936324,-0.01378251,0.00167252,0.01217371,0.13261549
 ,-0.02539572,-0.15800476,0.00485154,-0.00669566,-0.00019389,0.00049887
 ,-0.00131314,0.00001082,0.01917211,-0.00505006,-0.01184091,-0.14179485
 ,0.03384495,0.15795300,-0.18603176,-0.00569733,0.05978374,-0.01815632,
 -0.00459420,0.00483764,-0.02332169,-0.00518432,-0.00156278,0.00222703,
 0.00173692,-0.00080235,0.00152666,0.00008835,0.00116667,-0.00038932,-0
 .00063073,-0.00042088,0.51230514,0.00082605,-0.07617389,0.00905537,0.0
 2214053,-0.00067329,-0.01801964,-0.03364794,-0.00160102,0.00932142,-0.
 00582015,0.00164307,0.00405494,-0.00124565,0.00029539,-0.00078078,0.00
 381677,0.00152938,0.00304875,-0.00733143,0.56749662,0.06527900,0.00864
 470,-0.12108273,-0.00489520,-0.00327683,0.00200059,-0.02086339,-0.0022
 0942,0.00904318,0.02872829,0.00259260,-0.00955710,-0.00095162,0.001090
 69,0.00059701,-0.00103208,0.00016160,-0.00081116,0.03316439,0.00079735
 ,0.57654460,-0.01277813,-0.02195568,-0.01766164,0.00114355,-0.00106260
 ,-0.00139673,-0.00761617,-0.00035446,0.00372129,0.00101582,0.00053702,
 0.00088337,-0.00025336,0.00032502,-0.00010729,-0.00003360,0.00025863,0
 .00013134,-0.12020007,-0.09933165,-0.05961361,0.13026634,-0.00004846,-
 0.00186511,-0.00095610,-0.00093688,0.00013980,0.00029484,0.00075999,0.
 00136665,0.00075013,-0.00025714,0.00006239,0.00041135,-0.00000857,0.00
 007190,0.00002875,-0.00018811,0.00012183,-0.00009176,-0.09979237,-0.18
 736102,-0.08503416,0.11037346,0.20071020,0.00599746,0.01186680,0.00744
 847,-0.00074201,-0.00009297,0.00018106,0.00352256,0.00075038,0.0004386
 7,-0.00105235,-0.00030713,-0.00008779,0.00002586,-0.00028400,0.0000426
 4,0.00000974,-0.00010916,-0.00007232,-0.06022391,-0.08493091,-0.102838
 80,0.06629690,0.09441316,0.10588912,-0.01995642,0.02842000,-0.00437792
 ,-0.00333051,0.00057892,0.00558293,0.00356227,-0.00190135,-0.00114543,
 0.00092115,-0.00070709,0.00003309,0.00040870,-0.00000474,0.00015189,-0
 .00131465,-0.00059294,-0.00110807,-0.11576984,0.11443710,-0.01211306,0
 .01034213,-0.01559359,0.00254116,0.12690552,-0.00267240,0.00483753,-0.
 00093238,-0.00234060,0.00074008,-0.00018662,0.00215029,0.00122487,0.00
 039615,0.00055096,0.00018282,-0.00045492,-0.00013407,-0.00001018,-0.00
 008267,-0.00025568,0.00012917,-0.00008660,0.11492115,-0.24312847,0.020
 51117,0.01217544,-0.01997491,0.00297507,-0.12652227,0.26123666,0.00882
 976,-0.01468709,0.00182207,0.00091221,0.00045894,-0.00185150,-0.001187
 88,0.00128588,0.00065625,-0.00067133,-0.00022343,0.00026590,0.00032896
 ,-0.00020257,0.00028714,0.00038740,-0.00012539,0.00055065,-0.01158967,
 0.02052259,-0.05269920,0.00860572,-0.01302223,0.00091054,0.01082627,-0
 .02243200,0.05113731,0.00171510,-0.00679906,0.03341232,0.00146102,0.00
 046009,0.00185101,0.00295369,-0.00002078,-0.00191273,-0.00554648,-0.00
 071857,0.00214539,-0.00019004,0.00038841,-0.00062080,0.00016832,0.0001
 1599,-0.00016305,-0.05218981,0.00615639,-0.02770273,-0.00188651,0.0056
 9167,-0.01637539,-0.00176835,0.00212719,-0.01644144,0.05528307,-0.0003
 2381,-0.00200557,0.00235667,0.00010476,0.00122084,-0.00082502,0.000583
 96,-0.00059854,0.00015880,-0.00041575,0.00093403,0.00007329,0.00001767
 ,-0.00017228,-0.00010778,0.00002976,-0.00007381,0.00006672,0.00648397,
 -0.06202677,0.05672231,-0.00096518,0.00672827,-0.02428124,0.00188596,-
 0.00523755,0.02842531,-0.00740134,0.06123138,-0.00190614,0.00241235,-0
 .01641307,-0.00110541,-0.00012239,0.00010837,-0.00051897,0.00023470,0.
 00247269,0.00268014,0.00020187,0.00042089,0.00078377,-0.00024247,0.000
 66927,-0.00013772,-0.00032473,0.00023486,-0.02435285,0.05693091,-0.301
 19638,-0.00085935,0.00320602,-0.01191158,-0.00039087,0.00029281,-0.001
 07916,0.02580741,-0.06258907,0.32669412||0.00006785,-0.00006163,0.0000
 7427,-0.00000814,-0.00005353,-0.00008243,0.00008866,0.00010987,0.00004
 849,-0.00004099,-0.00001472,0.00000425,0.00000646,0.00002568,0.0000035
 6,-0.00003057,-0.00000479,0.00001617,-0.00022248,-0.00000175,-0.000006
 52,0.00004666,-0.00000509,-0.00001273,0.00007270,0.00000214,-0.0000325
 4,0.00001985,0.00000382,-0.00001253|||@



 IN THIS SHORT LIFE

 THAT ONLY LASTS AN HOUR

 HOW MUCH, HOW LITTLE, IS WITHIN OUR POWER....


 EMILY DICKINSON BOLTS OF MELODY NO. 521
 Job cpu time:  0 days  0 hours  0 minutes 39.0 seconds.
 File lengths (MBytes):  RWF=     10 Int=      0 D2E=      0 Chk=      1 Scr=      1
 Normal termination of Gaussian 09 at Tue Mar 18 18:38:15 2014.
