 Default is to use a total of   4 processors:
                                4 via shared-memory
                                1 via Linda
 Entering Link 1 = d:\study\G09W\l1.exe PID=      7028.
  
 Copyright (c) 1988,1990,1992,1993,1995,1998,2003,2009,2013,
            Gaussian, Inc.  All Rights Reserved.
  
 This is part of the Gaussian(R) 09 program.  It is based on
 the Gaussian(R) 03 system (copyright 2003, Gaussian, Inc.),
 the Gaussian(R) 98 system (copyright 1998, Gaussian, Inc.),
 the Gaussian(R) 94 system (copyright 1995, Gaussian, Inc.),
 the Gaussian 92(TM) system (copyright 1992, Gaussian, Inc.),
 the Gaussian 90(TM) system (copyright 1990, Gaussian, Inc.),
 the Gaussian 88(TM) system (copyright 1988, Gaussian, Inc.),
 the Gaussian 86(TM) system (copyright 1986, Carnegie Mellon
 University), and the Gaussian 82(TM) system (copyright 1983,
 Carnegie Mellon University). Gaussian is a federally registered
 trademark of Gaussian, Inc.
  
 This software contains proprietary and confidential information,
 including trade secrets, belonging to Gaussian, Inc.
  
 This software is provided under written license and may be
 used, copied, transmitted, or stored only in accord with that
 written license.
  
 The following legend is applicable only to US Government
 contracts under FAR:
  
                    RESTRICTED RIGHTS LEGEND
  
 Use, reproduction and disclosure by the US Government is
 subject to restrictions as set forth in subparagraphs (a)
 and (c) of the Commercial Computer Software - Restricted
 Rights clause in FAR 52.227-19.
  
 Gaussian, Inc.
 340 Quinnipiac St., Bldg. 40, Wallingford CT 06492
  
  
 ---------------------------------------------------------------
 Warning -- This program may not be used in any manner that
 competes with the business of Gaussian, Inc. or will provide
 assistance to any competitor of Gaussian, Inc.  The licensee
 of this program is prohibited from giving any competitor of
 Gaussian, Inc. access to this program.  By using this program,
 the user acknowledges that Gaussian, Inc. is engaged in the
 business of creating and licensing software in the field of
 computational chemistry and represents and warrants to the
 licensee that it is not a competitor of Gaussian, Inc. and that
 it will not use this program in any manner prohibited above.
 ---------------------------------------------------------------
  

 Cite this work as:
 Gaussian 09, Revision D.01,
 M. J. Frisch, G. W. Trucks, H. B. Schlegel, G. E. Scuseria, 
 M. A. Robb, J. R. Cheeseman, G. Scalmani, V. Barone, B. Mennucci, 
 G. A. Petersson, H. Nakatsuji, M. Caricato, X. Li, H. P. Hratchian, 
 A. F. Izmaylov, J. Bloino, G. Zheng, J. L. Sonnenberg, M. Hada, 
 M. Ehara, K. Toyota, R. Fukuda, J. Hasegawa, M. Ishida, T. Nakajima, 
 Y. Honda, O. Kitao, H. Nakai, T. Vreven, J. A. Montgomery, Jr., 
 J. E. Peralta, F. Ogliaro, M. Bearpark, J. J. Heyd, E. Brothers, 
 K. N. Kudin, V. N. Staroverov, T. Keith, R. Kobayashi, J. Normand, 
 K. Raghavachari, A. Rendell, J. C. Burant, S. S. Iyengar, J. Tomasi, 
 M. Cossi, N. Rega, J. M. Millam, M. Klene, J. E. Knox, J. B. Cross, 
 V. Bakken, C. Adamo, J. Jaramillo, R. Gomperts, R. E. Stratmann, 
 O. Yazyev, A. J. Austin, R. Cammi, C. Pomelli, J. W. Ochterski, 
 R. L. Martin, K. Morokuma, V. G. Zakrzewski, G. A. Voth, 
 P. Salvador, J. J. Dannenberg, S. Dapprich, A. D. Daniels, 
 O. Farkas, J. B. Foresman, J. V. Ortiz, J. Cioslowski, 
 and D. J. Fox, Gaussian, Inc., Wallingford CT, 2013.
 
 ******************************************
 Gaussian 09:  IA32W-G09RevD.01 24-Apr-2013
                24-Jun-2017 
 ******************************************
 ---------------------------------------
 # b3lyp/6-31g(d) cphf=rdfreq freq=raman
 ---------------------------------------
 1/10=4,30=1,38=1,83=1/1,3;
 2/12=2,17=6,18=5,40=1/2;
 3/5=1,6=6,7=1,11=2,16=1,25=1,30=1,71=2,74=-5,140=1/1,2,3;
 4//1;
 5/5=2,38=5,98=1/2;
 8/6=4,10=90,11=11/1;
 10/13=10,15=4,49=1,72=3/2;
 11/6=3,8=1,9=11,15=111,16=1/1,2,10;
 10/6=1,49=1/2;
 6/7=2,8=2,9=2,10=2,18=1,28=1/1;
 7/8=1,10=1,25=1/1,2,3,16;
 1/10=4,30=1/3;
 99//99;
 --------------------
 b3lyp/6-31g(d) opted
 --------------------
 Symbolic Z-matrix:
 Charge =  0 Multiplicity = 1
 C                     0.15209  -0.03782   0.48962 
 C                    -1.04502   0.61516  -0.06017 
 O                    -0.82673  -0.78926  -0.2432 
 H                     0.1552   -0.25632   1.56041 
 H                    -0.9577    1.22245  -0.96233 
 H                    -1.87555   0.8793    0.59576 
 C                     1.5111    0.10062  -0.14865 
 H                     2.08961   0.89551   0.33755 
 H                     2.07801  -0.83315  -0.05772 
 H                     1.41527   0.33847  -1.21291 
 
 Using perturbation frequencies:    0.000000    0.303756    0.325453

 GradGradGradGradGradGradGradGradGradGradGradGradGradGradGradGradGradGrad
 Berny optimization.
 Initialization pass.
 Trust Radius=3.00D-01 FncErr=1.00D-07 GrdErr=1.00D-07
 Number of steps in this run=      2 maximum allowed number of steps=      2.
 GradGradGradGradGradGradGradGradGradGradGradGradGradGradGradGradGradGrad

                          Input orientation:                          
 ---------------------------------------------------------------------
 Center     Atomic      Atomic             Coordinates (Angstroms)
 Number     Number       Type             X           Y           Z
 ---------------------------------------------------------------------
      1          6           0        0.152086   -0.037817    0.489624
      2          6           0       -1.045018    0.615161   -0.060166
      3          8           0       -0.826733   -0.789257   -0.243202
      4          1           0        0.155196   -0.256318    1.560414
      5          1           0       -0.957703    1.222452   -0.962333
      6          1           0       -1.875545    0.879302    0.595764
      7          6           0        1.511103    0.100621   -0.148651
      8          1           0        2.089613    0.895510    0.337545
      9          1           0        2.078013   -0.833150   -0.057721
     10          1           0        1.415270    0.338468   -1.212906
 ---------------------------------------------------------------------
                    Distance matrix (angstroms):
                    1          2          3          4          5
     1  C    0.000000
     2  C    1.470275   0.000000
     3  O    1.435194   1.433018   0.000000
     4  H    1.092860   2.196877   2.121612   0.000000
     5  H    2.219930   1.091023   2.140391   3.128827   0.000000
     6  H    2.227927   1.090775   2.141952   2.518748   1.840612
     7  C    1.507809   2.608895   2.503258   2.210609   2.831181
     8  H    2.155977   3.172173   3.417716   2.562047   3.329070
     9  H    2.154376   3.442518   2.910993   2.578434   3.776161
    10  H    2.153098   2.731004   2.690477   3.103685   2.544644
                    6          7          8          9         10
     6  H    0.000000
     7  C    3.553855   0.000000
     8  H    3.973590   1.096772   0.000000
     9  H    4.357770   1.096168   1.773312   0.000000
    10  H    3.793844   1.094712   1.780150   1.773801   0.000000
 Stoichiometry    C3H6O
 Framework group  C1[X(C3H6O)]
 Deg. of freedom    24
 Full point group                 C1      NOp   1
 Largest Abelian subgroup         C1      NOp   1
 Largest concise Abelian subgroup C1      NOp   1
                         Standard orientation:                         
 ---------------------------------------------------------------------
 Center     Atomic      Atomic             Coordinates (Angstroms)
 Number     Number       Type             X           Y           Z
 ---------------------------------------------------------------------
      1          6           0        0.152086   -0.037817    0.489624
      2          6           0       -1.045018    0.615161   -0.060166
      3          8           0       -0.826733   -0.789257   -0.243202
      4          1           0        0.155196   -0.256318    1.560414
      5          1           0       -0.957703    1.222452   -0.962333
      6          1           0       -1.875545    0.879302    0.595764
      7          6           0        1.511103    0.100621   -0.148651
      8          1           0        2.089613    0.895510    0.337545
      9          1           0        2.078013   -0.833150   -0.057721
     10          1           0        1.415270    0.338468   -1.212906
 ---------------------------------------------------------------------
 Rotational constants (GHZ):     18.1167714      6.6247737      5.9099975
 Standard basis: 6-31G(d) (6D, 7F)
 There are    72 symmetry adapted cartesian basis functions of A   symmetry.
 There are    72 symmetry adapted basis functions of A   symmetry.
    72 basis functions,   136 primitive gaussians,    72 cartesian basis functions
    16 alpha electrons       16 beta electrons
       nuclear repulsion energy       124.4011109126 Hartrees.
 NAtoms=   10 NActive=   10 NUniq=   10 SFac= 1.00D+00 NAtFMM=   60 NAOKFM=F Big=F
 Integral buffers will be    262144 words long.
 Raffenetti 2 integral format.
 Two-electron integral symmetry is turned on.
 One-electron integrals computed using PRISM.
 NBasis=    72 RedAO= T EigKep=  3.93D-03  NBF=    72
 NBsUse=    72 1.00D-06 EigRej= -1.00D+00 NBFU=    72
 ExpMin= 1.61D-01 ExpMax= 5.48D+03 ExpMxC= 8.25D+02 IAcc=1 IRadAn=         1 AccDes= 0.00D+00
 Harris functional with IExCor=  402 and IRadAn=       1 diagonalized for initial guess.
 HarFok:  IExCor=  402 AccDes= 0.00D+00 IRadAn=         1 IDoV= 1 UseB2=F ITyADJ=14
 ICtDFT=  3500011 ScaDFX=  1.000000  1.000000  1.000000  1.000000
 FoFCou: FMM=F IPFlag=           0 FMFlag=      100000 FMFlg1=           0
         NFxFlg=           0 DoJE=T BraDBF=F KetDBF=T FulRan=T
         wScrn=  0.000000 ICntrl=     500 IOpCl=  0 I1Cent=   200000004 NGrid=           0
         NMat0=    1 NMatS0=      1 NMatT0=    0 NMatD0=    1 NMtDS0=    0 NMtDT0=    0
 Petite list used in FoFCou.
 Keep R1 ints in memory in canonical form, NReq=4379008.
 Requested convergence on RMS density matrix=1.00D-08 within 128 cycles.
 Requested convergence on MAX density matrix=1.00D-06.
 Requested convergence on             energy=1.00D-06.
 No special actions if energy rises.
 Integral accuracy reduced to 1.0D-05 until final iterations.
 Initial convergence to 1.0D-05 achieved.  Increase integral accuracy.
 SCF Done:  E(RB3LYP) =  -193.108518110     A.U. after   13 cycles
            NFock= 13  Conv=0.42D-08     -V/T= 2.0093
 DoSCS=F DFT=T ScalE2(SS,OS)=  1.000000  1.000000
 Range of M.O.s used for correlation:     1    72
 NBasis=    72 NAE=    16 NBE=    16 NFC=     0 NFV=     0
 NROrb=     72 NOA=    16 NOB=    16 NVA=    56 NVB=    56
          Differentiating once with respect to electric field.
                with respect to dipole field.
          Electric field/nuclear overlap derivatives assumed to be zero.
 Keep R1 and R3 ints in memory in canonical form, NReq=7799172.
          There are     9 degrees of freedom in the 1st order CPHF.  IDoFFX=0 NUNeed=     9.
 LinEq1:  Iter=  0 NonCon=     9 RMS=4.10D-01 Max=1.26D+01 NDo=     9
 AX will form     9 AO Fock derivatives at one time.
 LinEq1:  Iter=  1 NonCon=     9 RMS=2.63D-01 Max=4.66D+00 NDo=     9
 LinEq1:  Iter=  2 NonCon=     9 RMS=3.31D-01 Max=8.15D+00 NDo=     9
 LinEq1:  Iter=  3 NonCon=     9 RMS=2.59D-01 Max=5.19D+00 NDo=     9
 LinEq1:  Iter=  4 NonCon=     9 RMS=3.22D-01 Max=7.98D+00 NDo=     9
 LinEq1:  Iter=  5 NonCon=     9 RMS=1.97D-01 Max=5.42D+00 NDo=     9
 LinEq1:  Iter=  6 NonCon=     9 RMS=1.91D-01 Max=4.61D+00 NDo=     9
 LinEq1:  Iter=  7 NonCon=     9 RMS=1.34D-01 Max=2.27D+00 NDo=     9
 LinEq1:  Iter=  8 NonCon=     9 RMS=5.75D-02 Max=8.16D-01 NDo=     9
 LinEq1:  Iter=  9 NonCon=     9 RMS=2.49D-02 Max=5.51D-01 NDo=     9
 LinEq1:  Iter= 10 NonCon=     9 RMS=1.25D-02 Max=2.25D-01 NDo=     9
 LinEq1:  Iter= 11 NonCon=     9 RMS=9.32D-03 Max=1.28D-01 NDo=     9
 LinEq1:  Iter= 12 NonCon=     9 RMS=4.34D-03 Max=6.34D-02 NDo=     9
 LinEq1:  Iter= 13 NonCon=     9 RMS=1.65D-03 Max=2.38D-02 NDo=     9
 LinEq1:  Iter= 14 NonCon=     6 RMS=5.57D-04 Max=6.29D-03 NDo=     9
 LinEq1:  Iter= 15 NonCon=     6 RMS=1.74D-04 Max=2.37D-03 NDo=     6
 LinEq1:  Iter= 16 NonCon=     6 RMS=5.97D-05 Max=9.27D-04 NDo=     6
 LinEq1:  Iter= 17 NonCon=     6 RMS=1.46D-05 Max=1.99D-04 NDo=     6
 LinEq1:  Iter= 18 NonCon=     6 RMS=3.69D-06 Max=4.81D-05 NDo=     6
 LinEq1:  Iter= 19 NonCon=     6 RMS=1.52D-06 Max=2.71D-05 NDo=     6
 LinEq1:  Iter= 20 NonCon=     6 RMS=3.99D-07 Max=5.30D-06 NDo=     6
 LinEq1:  Iter= 21 NonCon=     3 RMS=1.20D-07 Max=1.97D-06 NDo=     6
 LinEq1:  Iter= 22 NonCon=     3 RMS=3.55D-08 Max=5.25D-07 NDo=     3
 LinEq1:  Iter= 23 NonCon=     1 RMS=9.55D-09 Max=1.07D-07 NDo=     3
 LinEq1:  Iter= 24 NonCon=     0 RMS=2.91D-09 Max=6.82D-08 NDo=     1
 Linear equations converged to 1.000D-08 1.000D-07 after    24 iterations.
 Isotropic polarizability for W=    0.000000       33.50 Bohr**3.
 Isotropic polarizability for W=    0.303756       52.01 Bohr**3.
 Isotropic polarizability for W=    0.325453       71.61 Bohr**3.
 End of Minotr F.D. properties on file   721 Mask=      11 NFrqRd=     3 NDeriv=     1 ND12= 1 LenFil=      86:
 Frequencies=    0.000000    0.303756    0.325453
 Property number 1 -- Alpha(-w,w) frequency  1    0.000000:
                 1             2             3 
      1   0.391576D+02 -0.360215D+01  0.873499D+00
      2  -0.360215D+01  0.300028D+02 -0.182811D+01
      3   0.873499D+00 -0.182811D+01  0.313356D+02
 Property number 1 -- Alpha(-w,w) frequency  2    0.303756:
                 1             2             3 
      1   0.640858D+02 -0.863568D+01  0.940420D+00
      2  -0.863568D+01  0.426562D+02 -0.358824D+01
      3   0.940420D+00 -0.358824D+01  0.492765D+02
 Property number 1 -- Alpha(-w,w) frequency  3    0.325453:
                 1             2             3 
      1   0.773482D+02 -0.964728D+01 -0.115767D+02
      2  -0.964728D+01  0.473294D+02 -0.618552D+01
      3  -0.115767D+02 -0.618552D+01  0.901529D+02
 Property number 5 -- Beta(-w,w,0) frequency  1    0.000000:
                 1 
      1   0.144382D+02
      2   0.256419D+02
      3   0.126914D+02
      4   0.310425D+02
      5   0.198082D+01
      6   0.251638D+00
      7   0.256419D+02
      8   0.126914D+02
      9   0.220941D+02
     10   0.198082D+01
     11  -0.251144D+01
     12   0.252658D+02
     13   0.310425D+02
     14   0.198082D+01
     15  -0.251144D+01
     16   0.251638D+00
     17   0.252658D+02
     18   0.132368D+02
 Property number 5 -- Beta(-w,w,0) frequency  2    0.303756:
                 1 
      1   0.157135D+03
      2   0.988091D+02
      3   0.438207D+02
      4   0.182248D+03
      5   0.120043D+02
      6  -0.199700D+02
      7   0.210450D+03
      8   0.296851D+02
      9   0.803733D+02
     10  -0.238409D+00
     11  -0.589509D+02
     12   0.280718D+03
     13   0.126256D+03
     14  -0.202746D+01
     15  -0.284498D+02
     16  -0.664135D+02
     17   0.138978D+03
     18   0.301234D+03
 Property number 5 -- Beta(-w,w,0) frequency  3    0.325453:
                 1 
      1   0.154739D+03
      2   0.363015D+03
      3   0.202341D+03
      4  -0.111309D+04
      5  -0.687820D+03
      6   0.826617D+04
      7   0.189832D+04
      8   0.550812D+03
      9   0.261282D+03
     10  -0.423964D+04
     11  -0.126084D+04
     12   0.113499D+05
     13   0.550857D+03
     14  -0.297873D+03
     15  -0.160424D+03
     16  -0.111286D+04
     17   0.105617D+04
     18   0.344885D+04
 End of Minotr F.D. properties file   722 does not exist.
 End of Minotr F.D. properties file   788 does not exist.
 Symmetrizing basis deriv contribution to polar:
 IMax=3 JMax=2 DiffMx= 0.00D+00
 G2DrvN: will do    11 centers at a time, making    1 passes.
 PxScal for G2LodP:  IOpCl= 0 ISclPx=1 IMOff=     1 NMtTot=    19 NTT=    2628 ScalPx= 2.76D+01
 Calling FoFCou, ICntrl=  3107 FMM=F I1Cent=   0 AccDes= 0.00D+00.
 End of G2Drv F.D. properties on file   721 Mask=      11 NFrqRd=     3 NDeriv=     1 ND12= 1 LenFil=      86:
 Frequencies=    0.000000    0.303756    0.325453
 Property number 1 -- Alpha(-w,w) frequency  1    0.000000:
                 1             2             3 
      1   0.391576D+02 -0.360215D+01  0.873499D+00
      2  -0.360215D+01  0.300028D+02 -0.182811D+01
      3   0.873499D+00 -0.182811D+01  0.313356D+02
 Property number 1 -- Alpha(-w,w) frequency  2    0.303756:
                 1             2             3 
      1   0.640858D+02 -0.863568D+01  0.940420D+00
      2  -0.863568D+01  0.426562D+02 -0.358824D+01
      3   0.940420D+00 -0.358824D+01  0.492765D+02
 Property number 1 -- Alpha(-w,w) frequency  3    0.325453:
                 1             2             3 
      1   0.773482D+02 -0.964728D+01 -0.115767D+02
      2  -0.964728D+01  0.473294D+02 -0.618552D+01
      3  -0.115767D+02 -0.618552D+01  0.901529D+02
 Property number 5 -- Beta(-w,w,0) frequency  1    0.000000:
                 1 
      1   0.144382D+02
      2   0.256419D+02
      3   0.126914D+02
      4   0.310425D+02
      5   0.198082D+01
      6   0.251638D+00
      7   0.256419D+02
      8   0.126914D+02
      9   0.220941D+02
     10   0.198082D+01
     11  -0.251144D+01
     12   0.252658D+02
     13   0.310425D+02
     14   0.198082D+01
     15  -0.251144D+01
     16   0.251638D+00
     17   0.252658D+02
     18   0.132368D+02
 Property number 5 -- Beta(-w,w,0) frequency  2    0.303756:
                 1 
      1   0.157135D+03
      2   0.988091D+02
      3   0.438207D+02
      4   0.182248D+03
      5   0.120043D+02
      6  -0.199700D+02
      7   0.210450D+03
      8   0.296851D+02
      9   0.803733D+02
     10  -0.238409D+00
     11  -0.589509D+02
     12   0.280718D+03
     13   0.126256D+03
     14  -0.202746D+01
     15  -0.284498D+02
     16  -0.664135D+02
     17   0.138978D+03
     18   0.301234D+03
 Property number 5 -- Beta(-w,w,0) frequency  3    0.325453:
                 1 
      1   0.154739D+03
      2   0.363015D+03
      3   0.202341D+03
      4  -0.111309D+04
      5  -0.687820D+03
      6   0.826617D+04
      7   0.189832D+04
      8   0.550812D+03
      9   0.261282D+03
     10  -0.423964D+04
     11  -0.126084D+04
     12   0.113499D+05
     13   0.550857D+03
     14  -0.297873D+03
     15  -0.160424D+03
     16  -0.111286D+04
     17   0.105617D+04
     18   0.344885D+04
 End of G2Drv F.D. properties on file   722 Mask=       1 NFrqRd=     3 NDeriv=    30 ND12= 1 LenFil=     815:
 Frequencies=    0.000000    0.303756    0.325453
 Property number 1 -- Alpha(-w,w) derivatives, frequency  1    0.000000:
                 1             2             3             4             5 
      1   0.137006D+01 -0.268106D+01  0.533228D+01 -0.905735D+00  0.117142D+01
      2  -0.268106D+01  0.288026D+01 -0.102188D+00  0.117142D+01 -0.105451D+01
      3   0.533228D+01 -0.102188D+00 -0.161465D+00 -0.678790D+00  0.141489D+01
                 6             7             8             9            10 
      1  -0.678790D+00  0.233481D+01 -0.680344D+00  0.399961D+00 -0.537306D+01
      2   0.141489D+01 -0.680344D+00  0.103347D+01  0.152020D+00  0.325913D+01
      3   0.625064D+00  0.399961D+00  0.152020D+00  0.256239D+01 -0.204247D+01
                11            12            13            14            15 
      1   0.325913D+01 -0.204247D+01  0.255388D+01 -0.385018D+01  0.201769D+01
      2  -0.269135D+01  0.230827D+00 -0.385018D+01  0.427628D+01 -0.915083D+00
      3   0.230827D+00  0.864591D+00  0.201769D+01 -0.915083D+00 -0.405444D+00
                16            17            18            19            20 
      1  -0.554288D+00  0.978312D+00 -0.276521D+01 -0.157155D+01 -0.397170D-02
      2   0.978312D+00 -0.106091D+01  0.136177D+01 -0.397170D-02  0.659922D-01
      3  -0.276521D+01  0.136177D+01 -0.106443D+00 -0.226498D+00 -0.465105D+00
                21            22            23            24            25 
      1  -0.226498D+00 -0.110632D+01  0.117276D+01 -0.375333D+00 -0.424029D+00
      2  -0.465105D+00  0.117276D+01 -0.181445D+01 -0.361395D-01  0.172734D+00
      3  -0.626201D+00 -0.375333D+00 -0.361395D-01 -0.403572D+00 -0.102555D+01
                26            27            28            29            30 
      1   0.172734D+00 -0.102555D+01 -0.367457D+00  0.653455D+00 -0.162978D+01
      2  -0.675914D-02 -0.365362D+00  0.653455D+00  0.115810D+00  0.641432D-01
      3  -0.365362D+00 -0.375633D+00 -0.162978D+01  0.641432D-01 -0.178362D+00
                31            32            33            34            35 
      1   0.467186D-02 -0.485757D-01  0.498590D-01  0.521260D+00  0.140747D+00
      2  -0.485757D-01  0.573942D+00 -0.105733D+01  0.140747D+00 -0.166417D+00
      3   0.498590D-01 -0.105733D+01  0.140397D+00 -0.198970D+00  0.532751D+00
                36            37            38            39            40 
      1  -0.198970D+00  0.689454D+00 -0.576805D+00  0.593560D+00 -0.319001D+00
      2   0.532751D+00 -0.576805D+00 -0.249268D+00  0.255149D+00  0.717786D+00
      3  -0.322882D+01  0.593560D+00  0.255149D+00 -0.440499D+00 -0.638103D+00
                41            42            43            44            45 
      1   0.717786D+00 -0.638103D+00  0.170058D+00 -0.769148D+00  0.108472D+01
      2  -0.150790D+01  0.110922D+01 -0.769148D+00  0.708468D+00 -0.112069D+01
      3   0.110922D+01 -0.414347D-01  0.108472D+01 -0.112069D+01  0.162411D+01
                46            47            48            49            50 
      1   0.330175D+01 -0.125650D+01 -0.446987D+00 -0.562309D+00  0.119539D+01
      2  -0.125650D+01  0.342059D+00  0.185293D+00  0.119539D+01 -0.545493D+00
      3  -0.446987D+00  0.185293D+00 -0.407959D+00 -0.815079D-01 -0.570912D+00
                51            52            53            54            55 
      1  -0.815079D-01 -0.124156D+01  0.547953D+00  0.117197D+01  0.748592D+01
      2  -0.570912D+00  0.547953D+00 -0.300722D+00 -0.453216D+00  0.397742D+00
      3   0.177158D+00  0.117197D+01 -0.453216D+00 -0.762694D+00 -0.196367D+01
                56            57            58            59            60 
      1   0.397742D+00 -0.196367D+01  0.185047D+00  0.253436D+01 -0.384932D+00
      2  -0.189001D+01 -0.385606D+00  0.253436D+01  0.522242D-01 -0.110898D+01
      3  -0.385606D+00 -0.275654D+00 -0.384932D+00 -0.110898D+01 -0.409621D+00
                61            62            63            64            65 
      1  -0.286813D-01 -0.468746D+00  0.463892D+01 -0.232907D+01 -0.848761D+00
      2  -0.468746D+00 -0.521249D+00 -0.523586D+00 -0.848761D+00  0.538212D+00
      3   0.463892D+01 -0.523586D+00 -0.253460D+00 -0.352057D+00  0.485661D+00
                66            67            68            69            70 
      1  -0.352057D+00 -0.135473D+01 -0.116574D+01 -0.403522D+00 -0.674900D+00
      2   0.485661D+00 -0.116574D+01 -0.922720D+00  0.447721D-01 -0.501217D+00
      3   0.341930D+00 -0.403522D+00  0.447721D-01  0.305717D+00 -0.109872D+01
                71            72            73            74            75 
      1  -0.501217D+00 -0.109872D+01 -0.229141D+01  0.115514D+01  0.273947D-01
      2   0.183447D+00 -0.475139D+00  0.115514D+01  0.755837D+00 -0.233062D+00
      3  -0.475139D+00 -0.843552D+00  0.273947D-01 -0.233062D+00  0.253045D-01
                76            77            78            79            80 
      1   0.145425D+01 -0.172063D+01  0.132766D+00  0.373366D-01  0.224791D+00
      2  -0.172063D+01  0.136347D+01  0.213997D+00  0.224791D+00 -0.962879D-01
      3   0.132766D+00  0.213997D+00  0.701701D-01 -0.668516D+00  0.860118D+00
                81            82            83            84            85 
      1  -0.668516D+00 -0.914643D+00 -0.983724D-01  0.708230D+00  0.502333D-01
      2   0.860118D+00 -0.983724D-01  0.132459D+00 -0.351120D-01 -0.660524D-02
      3  -0.261900D+00  0.708230D+00 -0.351120D-01  0.858313D+00  0.361873D+00
                86            87            88            89            90 
      1  -0.660524D-02  0.361873D+00 -0.140005D+00  0.354917D+00 -0.153860D+01
      2  -0.420836D+00  0.905569D+00  0.354917D+00  0.226959D+00  0.313276D-01
      3   0.905569D+00 -0.584336D-01 -0.153860D+01  0.313276D-01  0.164600D+01
 Property number 1 -- Alpha(-w,w) derivatives, frequency  2    0.303756:
                 1             2             3             4             5 
      1   0.910227D+01 -0.456839D+01  0.828542D+01 -0.221633D+01  0.246402D+01
      2  -0.456839D+01  0.428653D+01 -0.211652D+01  0.246402D+01 -0.121785D+01
      3   0.828542D+01 -0.211652D+01 -0.520926D+00 -0.926050D+00  0.207701D+01
                 6             7             8             9            10 
      1  -0.926050D+00  0.440671D+01 -0.118224D+01  0.408997D-01 -0.162782D+02
      2   0.207701D+01 -0.118224D+01  0.101360D+01 -0.899774D+00  0.792454D+01
      3   0.115374D+01  0.408997D-01 -0.899774D+00  0.681997D+01 -0.528039D+01
                11            12            13            14            15 
      1   0.792454D+01 -0.528039D+01  0.730179D+01 -0.822668D+01  0.358232D+01
      2  -0.338154D+01  0.935337D+00 -0.822668D+01  0.943895D+01 -0.327885D+01
      3   0.935337D+00 -0.196253D+01  0.358232D+01 -0.327885D+01  0.251617D+01
                16            17            18            19            20 
      1   0.903882D+00  0.133848D+01 -0.630954D+01 -0.802550D+01 -0.492371D+00
      2   0.133848D+01 -0.240705D+01  0.464346D+01 -0.492371D+00 -0.227563D+01
      3  -0.630954D+01  0.464346D+01 -0.223396D+01  0.240238D+01  0.587904D+00
                21            22            23            24            25 
      1   0.240238D+01 -0.364725D+01  0.137961D+01 -0.103175D+01 -0.127120D+01
      2   0.587904D+00  0.137961D+01 -0.583718D+01  0.171482D+01  0.138309D+01
      3   0.251391D+01 -0.103175D+01  0.171482D+01 -0.387320D+01 -0.266283D+01
                26            27            28            29            30 
      1   0.138309D+01 -0.266283D+01 -0.117365D+01  0.122142D+01 -0.233361D+01
      2   0.742862D+00 -0.237014D+01  0.122142D+01  0.233872D+00  0.950669D+00
      3  -0.237014D+01 -0.294587D+01 -0.233361D+01  0.950669D+00 -0.458650D+00
                31            32            33            34            35 
      1   0.161180D+00 -0.595416D+00  0.346582D+00  0.129851D+01 -0.361879D+00
      2  -0.595416D+00  0.113882D+01 -0.212270D+01 -0.361879D+00 -0.975461D-01
      3   0.346582D+00 -0.212270D+01 -0.623486D+00 -0.131497D+01  0.240366D+01
                36            37            38            39            40 
      1  -0.131497D+01  0.185364D+01 -0.161881D+01  0.439642D+00 -0.754499D+00
      2   0.240366D+01 -0.161881D+01 -0.442425D+00  0.605585D+00  0.225159D+01
      3  -0.514570D+01  0.439642D+00  0.605585D+00  0.123589D+00 -0.249154D+01
                41            42            43            44            45 
      1   0.225159D+01 -0.249154D+01 -0.103611D+01 -0.215129D+01  0.413160D+01
      2  -0.240335D+01  0.186899D+01 -0.215129D+01  0.171879D+01 -0.245702D+01
      3   0.186899D+01 -0.715460D+00  0.413160D+01 -0.245702D+01  0.322068D+01
                46            47            48            49            50 
      1   0.929246D+01 -0.339851D+01 -0.658859D+00 -0.210965D+01  0.218244D+01
      2  -0.339851D+01  0.110819D+01  0.155773D+00  0.218244D+01 -0.103496D+01
      3  -0.658859D+00  0.155773D+00 -0.290872D+01  0.145648D+01 -0.601124D+00
                51            52            53            54            55 
      1   0.145648D+01 -0.311599D+01  0.134469D+01  0.337961D+01  0.175870D+02
      2  -0.601124D+00  0.134469D+01 -0.650251D+00 -0.150338D+01 -0.359304D+00
      3   0.162096D+01  0.337961D+01 -0.150338D+01  0.181837D+01 -0.300819D+01
                56            57            58            59            60 
      1  -0.359304D+00 -0.300819D+01  0.586588D+00  0.804071D+01 -0.652411D+00
      2  -0.159454D+01 -0.124140D+01  0.804071D+01 -0.176830D+01 -0.187748D+01
      3  -0.124140D+01  0.118328D+01 -0.652411D+00 -0.187748D+01 -0.482293D-01
                61            62            63            64            65 
      1   0.109677D+00 -0.496308D+00  0.101636D+02 -0.516254D+01 -0.152277D+01
      2  -0.496308D+00 -0.839103D+00 -0.873219D+00 -0.152277D+01  0.106072D+01
      3   0.101636D+02 -0.873219D+00 -0.261127D+01 -0.640994D+00  0.779793D+00
                66            67            68            69            70 
      1  -0.640994D+00 -0.336277D+01 -0.265246D+01 -0.650393D+00 -0.137837D+01
      2   0.779793D+00 -0.265246D+01 -0.860208D+00  0.277796D+00 -0.888017D+00
      3   0.757376D+00 -0.650393D+00  0.277796D+00  0.100322D+01 -0.256032D+01
                71            72            73            74            75 
      1  -0.888017D+00 -0.256032D+01 -0.497657D+01  0.291638D+01 -0.274233D+00
      2   0.757958D+00 -0.763476D+00  0.291638D+01  0.699241D+00 -0.383811D+00
      3  -0.763476D+00 -0.160548D+01 -0.274233D+00 -0.383811D+00  0.775980D-02
                76            77            78            79            80 
      1   0.417899D+01 -0.434505D+01 -0.222614D+00 -0.741353D-01  0.389451D+00
      2  -0.434505D+01  0.287962D+01  0.365821D+00  0.389451D+00 -0.850638D-01
      3  -0.222614D+00  0.365821D+00 -0.309847D+00 -0.141267D+01  0.150044D+01
                81            82            83            84            85 
      1  -0.141267D+01 -0.221896D+01 -0.102182D+00  0.106882D+01 -0.138051D+00
      2   0.150044D+01 -0.102182D+00  0.305584D+00 -0.273331D+00 -0.498760D+00
      3  -0.282922D+00  0.106882D+01 -0.273331D+00  0.126491D+01  0.589378D+00
                86            87            88            89            90 
      1  -0.498760D+00  0.589378D+00  0.157027D+00  0.624027D+00 -0.345536D+01
      2  -0.335545D+00  0.157572D+01  0.624027D+00 -0.154193D+00  0.319455D+00
      3   0.157572D+01 -0.723863D+00 -0.345536D+01  0.319455D+00  0.296619D+01
 Property number 1 -- Alpha(-w,w) derivatives, frequency  3    0.325453:
                 1             2             3             4             5 
      1   0.404162D+01  0.306232D+01  0.198338D+02 -0.405379D+01  0.484566D+01
      2   0.306232D+01  0.832038D+01 -0.187617D+02  0.484566D+01  0.273599D+00
      3   0.198338D+02 -0.187617D+02 -0.375551D+02  0.105313D+02  0.233109D+00
                 6             7             8             9            10 
      1   0.105313D+02 -0.154862D+02 -0.702453D+01  0.481596D+02 -0.200254D+02
      2   0.233109D+00 -0.702453D+01 -0.209245D+01  0.157082D+01  0.128005D+02
      3  -0.383976D+02  0.481596D+02  0.157082D+01 -0.102129D+03  0.154713D+01
                11            12            13            14            15 
      1   0.128005D+02  0.154713D+01 -0.214346D+02 -0.144715D+02  0.716474D+02
      2  -0.116372D+01 -0.186298D+01 -0.144715D+02  0.102817D+02  0.979678D+01
      3  -0.186298D+01  0.673009D+01  0.716474D+02  0.979678D+01 -0.129719D+03
                16            17            18            19            20 
      1  -0.543177D+01 -0.410854D+01 -0.138737D+02 -0.206842D+02 -0.137715D+02
      2  -0.410854D+01 -0.520716D+01  0.961184D+01 -0.137715D+02 -0.992172D+01
      3  -0.138737D+02  0.961184D+01 -0.146992D+01  0.119843D+02  0.219525D+02
                21            22            23            24            25 
      1   0.119843D+02 -0.242777D+02 -0.970208D+01  0.250993D+02  0.807320D+01
      2   0.219525D+02 -0.970208D+01 -0.106667D+02  0.178719D+02  0.144443D+02
      3   0.132576D+02  0.250993D+02  0.178719D+02 -0.181980D+02  0.161103D+02
                26            27            28            29            30 
      1   0.144443D+02  0.161103D+02  0.443447D+01  0.450276D+00 -0.174990D+02
      2   0.727662D+01 -0.928494D+01  0.450276D+00 -0.123738D+00  0.329216D+01
      3  -0.928494D+01 -0.104146D+03 -0.174990D+02  0.329216D+01  0.309249D+02
                31            32            33            34            35 
      1   0.481835D+01  0.100506D+01 -0.133844D+02  0.188262D+02 -0.190175D+01
      2   0.100506D+01  0.788089D+00 -0.799077D+01 -0.190175D+01 -0.127133D+01
      3  -0.133844D+02 -0.799077D+01  0.391413D+02 -0.514453D+02  0.727074D+01
                36            37            38            39            40 
      1  -0.514453D+02  0.188936D+02 -0.102030D+01 -0.363964D+02  0.297053D+02
      2   0.727074D+01 -0.102030D+01 -0.737994D+00 -0.150333D+01  0.110423D+02
      3   0.129726D+03 -0.363964D+02 -0.150333D+01  0.918972D+02 -0.541378D+02
                41            42            43            44            45 
      1   0.110423D+02 -0.541378D+02 -0.191807D+02 -0.679054D+01  0.499754D+02
      2  -0.424189D+00 -0.115781D+02 -0.679054D+01  0.138529D+01  0.512257D+01
      3  -0.115781D+02  0.673087D+02  0.499754D+02  0.512257D+01 -0.924203D+02
                46            47            48            49            50 
      1   0.483400D+01 -0.532370D+01  0.270496D+02  0.735363D+01  0.382253D+01
      2  -0.532370D+01  0.130407D+01  0.599242D+01  0.382253D+01 -0.142230D+01
      3   0.270496D+02  0.599242D+01 -0.117703D+03 -0.263004D+02 -0.417630D+01
                51            52            53            54            55 
      1  -0.263004D+02  0.968295D+01  0.470220D+01 -0.421299D+02  0.193726D+02
      2  -0.417630D+01  0.470220D+01  0.250002D+00 -0.141544D+02 -0.179031D+01
      3   0.655520D+02 -0.421299D+02 -0.141544D+02  0.152554D+03 -0.276137D+01
                56            57            58            59            60 
      1  -0.179031D+01 -0.276137D+01  0.485126D-01  0.116303D+02 -0.324414D+01
      2  -0.113194D+01 -0.299806D+01  0.116303D+02 -0.216872D+01 -0.656110D+01
      3  -0.299806D+01  0.358702D+02 -0.324414D+01 -0.656110D+01  0.283878D+02
                61            62            63            64            65 
      1   0.883830D+01  0.233104D+01 -0.946876D+01 -0.625253D+01 -0.155785D+01
      2   0.233104D+01 -0.429395D+00 -0.612654D+01 -0.155785D+01  0.143675D+01
      3  -0.946876D+01 -0.612654D+01  0.473655D+02 -0.571924D+00  0.134215D+01
                66            67            68            69            70 
      1  -0.571924D+00 -0.496142D+01 -0.372553D+01 -0.218218D+01 -0.955536D+00
      2   0.134215D+01 -0.372553D+01 -0.813647D+00  0.230944D+01 -0.110261D+01
      3  -0.538596D+00 -0.218218D+01  0.230944D+01  0.134488D+02 -0.558935D+01
                71            72            73            74            75 
      1  -0.110261D+01 -0.558935D+01 -0.925489D+00  0.581621D+01 -0.163487D+02
      2   0.915269D+00 -0.315796D+00  0.581621D+01  0.106489D+01 -0.644494D+01
      3  -0.315796D+00  0.763149D+01 -0.163487D+02 -0.644494D+01  0.380036D+02
                76            77            78            79            80 
      1   0.542456D+01 -0.634293D+01  0.662385D+01  0.200414D+01  0.120061D+01
      2  -0.634293D+01  0.324213D+01  0.464886D+01  0.120061D+01  0.474635D+00
      3   0.662385D+01  0.464886D+01 -0.532286D+02 -0.825139D+01 -0.148073D+01
                81            82            83            84            85 
      1  -0.825139D+01 -0.368861D+01  0.133432D+01  0.131626D+02  0.737719D+01
      2  -0.148073D+01  0.133432D+01  0.953029D+00 -0.100815D+01  0.189617D+01
      3   0.204501D+02  0.131626D+02 -0.100815D+01 -0.608865D+02 -0.146530D+02
                86            87            88            89            90 
      1   0.189617D+01 -0.146530D+02 -0.637059D+01 -0.175016D+01  0.165131D+02
      2   0.910111D+00 -0.455381D+01 -0.175016D+01 -0.130149D+01  0.778642D+01
      3  -0.455381D+01  0.257046D+02  0.165131D+02  0.778642D+01 -0.575618D+02
 End of G2Drv F.D. properties file   788 does not exist.
          IDoAtm=1111111111
          Differentiating once with respect to electric field.
                with respect to dipole field.
          Differentiating once with respect to nuclear coordinates.
 Keep R1 and R3 ints in memory in canonical form, NReq=7799443.
          There are    33 degrees of freedom in the 1st order CPHF.  IDoFFX=5 NUNeed=    33.
 Will reuse    3 saved solutions.
     27 vectors produced by pass  0 Test12= 2.72D-15 3.03D-09 XBig12= 1.06D-01 7.46D-02.
 AX will form    27 AO Fock derivatives at one time.
     27 vectors produced by pass  1 Test12= 2.72D-15 3.03D-09 XBig12= 1.06D-02 2.26D-02.
     27 vectors produced by pass  2 Test12= 2.72D-15 3.03D-09 XBig12= 2.18D-04 2.48D-03.
     27 vectors produced by pass  3 Test12= 2.72D-15 3.03D-09 XBig12= 9.15D-07 1.57D-04.
     27 vectors produced by pass  4 Test12= 2.72D-15 3.03D-09 XBig12= 9.23D-10 4.44D-06.
     12 vectors produced by pass  5 Test12= 2.72D-15 3.03D-09 XBig12= 5.69D-13 1.18D-07.
      1 vectors produced by pass  6 Test12= 2.72D-15 3.03D-09 XBig12= 4.31D-16 3.95D-09.
 InvSVY:  IOpt=1 It=  1 EMax= 1.33D-15
 Solved reduced A of dimension   148 with    27 vectors.
 Isotropic polarizability for W=    0.000000       33.50 Bohr**3.
 PxSclF for G(T1ab):  IOpCl= 0 ISclPx=1 IMOff=     0 NMtTot=    27 NTT=    2628 IRwP= 19995     0 IPTmp= 19990     0 ScalPx= 1.18D+04
 End of Minotr F.D. properties on file   721 Mask=      11 NFrqRd=     3 NDeriv=     1 ND12= 1 LenFil=      86:
 Frequencies=    0.000000    0.303756    0.325453
 Property number 1 -- Alpha(-w,w) frequency  1    0.000000:
                 1             2             3 
      1   0.391576D+02 -0.360215D+01  0.873499D+00
      2  -0.360215D+01  0.300028D+02 -0.182811D+01
      3   0.873499D+00 -0.182811D+01  0.313356D+02
 Property number 1 -- Alpha(-w,w) frequency  2    0.303756:
                 1             2             3 
      1   0.640858D+02 -0.863568D+01  0.940420D+00
      2  -0.863568D+01  0.426562D+02 -0.358824D+01
      3   0.940420D+00 -0.358824D+01  0.492765D+02
 Property number 1 -- Alpha(-w,w) frequency  3    0.325453:
                 1             2             3 
      1   0.773482D+02 -0.964728D+01 -0.115767D+02
      2  -0.964728D+01  0.473294D+02 -0.618552D+01
      3  -0.115767D+02 -0.618552D+01  0.901529D+02
 Property number 5 -- Beta(-w,w,0) frequency  1    0.000000:
                 1 
      1   0.144382D+02
      2   0.256419D+02
      3   0.126914D+02
      4   0.310425D+02
      5   0.198082D+01
      6   0.251638D+00
      7   0.256419D+02
      8   0.126914D+02
      9   0.220941D+02
     10   0.198082D+01
     11  -0.251144D+01
     12   0.252658D+02
     13   0.310425D+02
     14   0.198082D+01
     15  -0.251144D+01
     16   0.251638D+00
     17   0.252658D+02
     18   0.132368D+02
 Property number 5 -- Beta(-w,w,0) frequency  2    0.303756:
                 1 
      1   0.157135D+03
      2   0.988091D+02
      3   0.438207D+02
      4   0.182248D+03
      5   0.120043D+02
      6  -0.199700D+02
      7   0.210450D+03
      8   0.296851D+02
      9   0.803733D+02
     10  -0.238409D+00
     11  -0.589509D+02
     12   0.280718D+03
     13   0.126256D+03
     14  -0.202746D+01
     15  -0.284498D+02
     16  -0.664135D+02
     17   0.138978D+03
     18   0.301234D+03
 Property number 5 -- Beta(-w,w,0) frequency  3    0.325453:
                 1 
      1   0.154739D+03
      2   0.363015D+03
      3   0.202341D+03
      4  -0.111309D+04
      5  -0.687820D+03
      6   0.826617D+04
      7   0.189832D+04
      8   0.550812D+03
      9   0.261282D+03
     10  -0.423964D+04
     11  -0.126084D+04
     12   0.113499D+05
     13   0.550857D+03
     14  -0.297873D+03
     15  -0.160424D+03
     16  -0.111286D+04
     17   0.105617D+04
     18   0.344885D+04
 End of Minotr F.D. properties on file   722 Mask=       1 NFrqRd=     3 NDeriv=    30 ND12= 1 LenFil=     815:
 Frequencies=    0.000000    0.303756    0.325453
 Property number 1 -- Alpha(-w,w) derivatives, frequency  1    0.000000:
                 1             2             3             4             5 
      1   0.670005D+01 -0.113234D+01  0.219211D+01 -0.491460D+00  0.374434D+01
      2  -0.113234D+01  0.977177D+00 -0.121359D+00  0.374434D+01 -0.383146D+00
      3   0.219211D+01 -0.121359D+00 -0.634005D+00  0.517580D+00  0.156647D+01
                 6             7             8             9            10 
      1   0.517580D+00  0.236930D+01  0.187477D+00  0.138689D+01 -0.293497D+01
      2   0.156647D+01  0.187477D+00  0.319223D+00  0.188744D+01  0.153292D+01
      3   0.108615D+01  0.138689D+01  0.188744D+01 -0.527983D+01 -0.342014D+01
                11            12            13            14            15 
      1   0.153292D+01 -0.342014D+01 -0.775405D+00 -0.118851D+01  0.104295D+01
      2   0.250550D+00  0.125096D+01 -0.118851D+01  0.331868D+01  0.137243D+01
      3   0.125096D+01  0.353137D+00  0.104295D+01  0.137243D+01 -0.273817D+01
                16            17            18            19            20 
      1  -0.470483D+01  0.121899D+01  0.343939D-01 -0.386925D+01 -0.377021D+01
      2   0.121899D+01  0.161676D+01 -0.119624D+01 -0.377021D+01 -0.709854D+00
      3   0.343939D-01 -0.119624D+01  0.132471D+01 -0.147625D+01 -0.164311D+00
                21            22            23            24            25 
      1  -0.147625D+01 -0.849384D+00 -0.233958D+01 -0.759480D+00 -0.117242D+01
      2  -0.164311D+00 -0.233958D+01 -0.789723D+01 -0.191704D+01 -0.619767D+00
      3   0.404655D+00 -0.759480D+00 -0.191704D+01  0.288197D+00 -0.148486D+01
                26            27            28            29            30 
      1  -0.619767D+00 -0.148486D+01  0.488444D+00 -0.243046D+00  0.184376D+01
      2  -0.850250D+00 -0.316581D+01 -0.243046D+00 -0.112194D+00 -0.434315D-01
      3  -0.316581D+01 -0.190007D+01  0.184376D+01 -0.434315D-01  0.297413D+00
                31            32            33            34            35 
      1  -0.117350D-03 -0.390229D+00  0.708657D-01  0.712105D+00 -0.133813D-01
      2  -0.390229D+00 -0.915549D+00  0.207115D+01 -0.133813D-01  0.626413D+00
      3   0.708657D-01  0.207115D+01 -0.757606D+00  0.158922D+00 -0.150176D+01
                36            37            38            39            40 
      1   0.158922D+00 -0.243027D+00  0.132566D+01 -0.871543D+00  0.616716D+00
      2  -0.150176D+01  0.132566D+01  0.181292D+00 -0.270382D+00 -0.502599D+00
      3   0.939149D+01 -0.871543D+00 -0.270382D+00 -0.200239D+00  0.577405D-01
                41            42            43            44            45 
      1  -0.502599D+00  0.577405D-01 -0.300383D+00  0.409952D+00 -0.671294D+00
      2   0.379592D+01 -0.300196D+01  0.409952D+00 -0.182391D+01  0.275450D+01
      3  -0.300196D+01  0.184687D+01 -0.671294D+00  0.275450D+01 -0.522313D+01
                46            47            48            49            50 
      1  -0.659164D+01  0.180103D+01  0.283737D+01  0.123990D+01 -0.241283D+01
      2   0.180103D+01 -0.933619D+00 -0.443314D+00 -0.241283D+01  0.162449D+01
      3   0.283737D+01 -0.443314D+00 -0.118183D+01 -0.784998D+00  0.114512D+01
                51            52            53            54            55 
      1  -0.784998D+00  0.287943D+01 -0.104374D+01 -0.275353D+01 -0.272503D+01
      2   0.114512D+01 -0.104374D+01  0.521389D+00  0.154817D+01  0.672689D+00
      3   0.874795D+00 -0.275353D+01  0.154817D+01  0.275801D+01 -0.151033D+01
                56            57            58            59            60 
      1   0.672689D+00 -0.151033D+01  0.828470D+00 -0.467949D+01 -0.102381D+01
      2  -0.322933D+01 -0.108271D+01 -0.467949D+01  0.159179D+01 -0.130284D+01
      3  -0.108271D+01  0.102116D+01 -0.102381D+01 -0.130284D+01 -0.207737D+01
                61            62            63            64            65 
      1  -0.124368D+01 -0.105925D+01 -0.777562D+00  0.485632D+01  0.261241D+01
      2  -0.105925D+01 -0.155401D+01 -0.179047D+01  0.261241D+01  0.141416D+01
      3  -0.777562D+00 -0.179047D+01  0.477345D+01  0.166395D+01  0.489347D+00
                66            67            68            69            70 
      1   0.166395D+01  0.204302D+01  0.329413D+01  0.682032D+00  0.169613D+01
      2   0.489347D+00  0.329413D+01  0.394030D+01  0.153776D+01  0.647501D+00
      3   0.110739D+00  0.682032D+00  0.153776D+01  0.869898D+00  0.169798D+01
                71            72            73            74            75 
      1   0.647501D+00  0.169798D+01  0.481125D+01 -0.319026D+01  0.384473D+00
      2   0.996561D+00  0.205579D+01 -0.319026D+01  0.181863D+01  0.248680D+00
      3   0.205579D+01  0.168478D+01  0.384473D+00  0.248680D+00  0.171271D-01
                76            77            78            79            80 
      1  -0.280416D+01  0.366945D+01  0.243177D+00  0.499878D+00  0.269494D+00
      2   0.366945D+01 -0.572898D+01  0.339341D+00  0.269494D+00  0.446072D+00
      3   0.243177D+00  0.339341D+00 -0.171804D+00  0.139604D+01 -0.159796D+01
                81            82            83            84            85 
      1   0.139604D+01 -0.492157D+00  0.391150D+00 -0.164341D+01  0.192427D+00
      2  -0.159796D+01  0.391150D+00  0.343191D+00  0.136521D+00  0.805311D+00
      3  -0.285054D+00 -0.164341D+01  0.136521D+00 -0.188152D+00 -0.460614D-01
                86            87            88            89            90 
      1   0.805311D+00 -0.460614D-01 -0.735530D+00  0.272584D-02  0.101303D+01
      2   0.653722D+00 -0.181043D+01  0.272584D-02 -0.298252D+00  0.100633D+01
      3  -0.181043D+01  0.779029D+00  0.101303D+01  0.100633D+01 -0.724436D+01
 Property number 1 -- Alpha(-w,w) derivatives, frequency  2    0.303756:
                 1             2             3             4             5 
      1   0.644807D+02 -0.152535D+02  0.131207D+02 -0.660806D+01  0.135068D+02
      2  -0.152535D+02  0.874548D+01 -0.230542D+01  0.135068D+02 -0.420312D+01
      3   0.131207D+02 -0.230542D+01  0.145695D+01 -0.775653D+00  0.488122D+01
                 6             7             8             9            10 
      1  -0.775653D+00  0.281684D+02  0.430025D+00  0.463774D+01 -0.223579D+02
      2   0.488122D+01  0.430025D+00  0.277359D+00  0.303834D+01  0.111586D+02
      3   0.743792D+01  0.463774D+01  0.303834D+01 -0.268123D+02 -0.251501D+02
                11            12            13            14            15 
      1   0.111586D+02 -0.251501D+02  0.134854D+02 -0.133695D+02  0.201809D+02
      2  -0.413523D+01  0.127138D+02 -0.133695D+02  0.121552D+02 -0.798857D+00
      3   0.127138D+02 -0.294334D+01  0.201809D+02 -0.798857D+00 -0.145317D+01
                16            17            18            19            20 
      1  -0.273432D+02  0.765333D+01 -0.574441D+00 -0.212050D+02 -0.851669D+01
      2   0.765333D+01  0.451336D+01 -0.837748D+01 -0.851669D+01 -0.586892D+00
      3  -0.574441D+00 -0.837748D+01 -0.104197D+01  0.161843D+01 -0.256524D+01
                21            22            23            24            25 
      1   0.161843D+01 -0.777499D+01 -0.139925D+01 -0.126546D+02 -0.175999D+02
      2  -0.256524D+01 -0.139925D+01 -0.154384D+02  0.113566D+01 -0.133391D+01
      3   0.752608D+01 -0.126546D+02  0.113566D+01 -0.812863D+01 -0.598920D+00
                26            27            28            29            30 
      1  -0.133391D+01 -0.598920D+00 -0.127798D+01  0.699630D+00  0.432504D+01
      2  -0.147072D+01 -0.506506D+01  0.699630D+00 -0.774603D+00 -0.243420D+00
      3  -0.506506D+01 -0.318482D+01  0.432504D+01 -0.243420D+00 -0.233305D+01
                31            32            33            34            35 
      1   0.304718D+01 -0.242898D+01 -0.165912D+01  0.820901D+00 -0.114448D+01
      2  -0.242898D+01 -0.107152D+01  0.390718D+01 -0.114448D+01  0.157765D+01
      3  -0.165912D+01  0.390718D+01 -0.525641D+01 -0.142593D+01 -0.275684D+01
                36            37            38            39            40 
      1  -0.142593D+01 -0.481642D+01  0.276372D+01 -0.170818D+01 -0.147396D+01
      2  -0.275684D+01  0.276372D+01  0.341919D+00 -0.229476D+01 -0.704022D-01
      3   0.345218D+02 -0.170818D+01 -0.229476D+01  0.117951D+01 -0.483804D+00
                41            42            43            44            45 
      1  -0.704022D-01 -0.483804D+00 -0.235514D+01  0.124754D+00  0.114762D+01
      2   0.759991D+01 -0.956869D+01  0.124754D+00 -0.565093D+01  0.849114D+01
      3  -0.956869D+01  0.763766D+01  0.114762D+01  0.849114D+01 -0.156807D+02
                46            47            48            49            50 
      1  -0.204846D+02  0.576369D+01  0.130816D+02  0.242235D+01 -0.405112D+01
      2   0.576369D+01 -0.237212D+01 -0.326768D+01 -0.405112D+01  0.158914D+01
      3   0.130816D+02 -0.326768D+01 -0.704152D+01 -0.269797D+01  0.244124D+01
                51            52            53            54            55 
      1  -0.269797D+01  0.134054D+02 -0.385610D+01 -0.111043D+02 -0.304954D+02
      2   0.244124D+01 -0.385610D+01  0.626916D+00  0.542337D+01  0.613249D+01
      3   0.442619D+01 -0.111043D+02  0.542337D+01  0.155694D+02 -0.822575D+01
                56            57            58            59            60 
      1   0.613249D+01 -0.822575D+01 -0.125473D+01 -0.159761D+02 -0.816995D+01
      2  -0.122217D+02 -0.526458D+01 -0.159761D+02  0.563549D+01 -0.311243D+01
      3  -0.526458D+01  0.298021D+01 -0.816995D+01 -0.311243D+01 -0.900502D+01
                61            62            63            64            65 
      1  -0.245998D+00 -0.536746D+01 -0.223556D+01  0.174120D+02  0.647620D+01
      2  -0.536746D+01 -0.299687D+01 -0.457910D+01  0.647620D+01  0.384784D+01
      3  -0.223556D+01 -0.457910D+01  0.544835D+01  0.486881D+01  0.168359D+01
                66            67            68            69            70 
      1   0.486881D+01  0.950224D+01  0.932602D+01  0.449333D+01  0.706086D+01
      2   0.168359D+01  0.932602D+01  0.660259D+01  0.365975D+01  0.195074D+01
      3  -0.155512D+01  0.449333D+01  0.365975D+01  0.258961D+01  0.549532D+01
                71            72            73            74            75 
      1   0.195074D+01  0.549532D+01  0.185103D+02 -0.950530D+01  0.288262D+00
      2   0.276026D+01  0.423105D+01 -0.950530D+01  0.623639D+01  0.925305D+00
      3   0.423105D+01  0.436229D+01  0.288262D+00  0.925305D+00  0.406827D+00
                76            77            78            79            80 
      1  -0.109969D+02  0.119425D+02  0.216287D+01  0.377425D+00  0.138820D+01
      2   0.119425D+02 -0.132527D+02  0.862945D-01  0.138820D+01  0.890796D+00
      3   0.216287D+01  0.862945D-01 -0.757059D+00  0.166568D+01 -0.215587D+01
                81            82            83            84            85 
      1   0.166568D+01  0.234273D+00  0.281114D+00 -0.221881D+01 -0.348531D+00
      2  -0.215587D+01  0.281114D+00  0.918904D+00  0.618381D+00  0.252001D+01
      3   0.291797D+00 -0.221881D+01  0.618381D+00  0.323461D+00 -0.395990D+00
                86            87            88            89            90 
      1   0.252001D+01 -0.395990D+00 -0.228866D+01  0.154899D+00  0.299278D+01
      2   0.383353D+00 -0.263137D+01  0.154899D+00 -0.527813D+00  0.175045D+01
      3  -0.263137D+01  0.250891D+01  0.299278D+01  0.175045D+01 -0.134738D+02
 Property number 1 -- Alpha(-w,w) derivatives, frequency  3    0.325453:
                 1             2             3             4             5 
      1   0.145711D+03  0.598847D+01 -0.160833D+03  0.764512D+02  0.436930D+02
      2   0.598847D+01  0.299134D+02 -0.694128D+02  0.436930D+02  0.202152D+01
      3  -0.160833D+03 -0.694128D+02  0.443468D+03 -0.223170D+03 -0.359405D+02
                 6             7             8             9            10 
      1  -0.223170D+03  0.906809D+02  0.201433D+02 -0.970392D+02 -0.155025D+02
      2  -0.359405D+02  0.201433D+02  0.106927D+02 -0.521487D+02  0.644346D+01
      3   0.582099D+03 -0.970392D+02 -0.521487D+02  0.661012D+02 -0.906630D+02
                11            12            13            14            15 
      1   0.644346D+01 -0.906630D+02  0.341243D+02 -0.611099D+01 -0.944946D+01
      2  -0.962660D+01  0.478184D+02 -0.611099D+01  0.191389D+02 -0.839439D+01
      3   0.478184D+02  0.153749D+03 -0.944946D+01 -0.839439D+01  0.116433D+03
                16            17            18            19            20 
      1  -0.429308D+02  0.313818D+02 -0.271273D+01 -0.795488D+02 -0.356254D+02
      2   0.313818D+02  0.107822D+02 -0.655242D+02 -0.356254D+02 -0.157374D+02
      3  -0.271273D+01 -0.655242D+02  0.106960D+03  0.149845D+03  0.615871D+02
                21            22            23            24            25 
      1   0.149845D+03 -0.161319D+03 -0.552989D+02  0.284306D+03 -0.112863D+03
      2   0.615871D+02 -0.552989D+02 -0.337171D+02  0.893784D+02 -0.278918D+02
      3  -0.367754D+03  0.284306D+03  0.893784D+02 -0.608306D+03  0.212805D+03
                26            27            28            29            30 
      1  -0.278918D+02  0.212805D+03 -0.836999D+01 -0.243512D+00  0.256975D+02
      2  -0.856390D+01  0.447046D+02 -0.243512D+00 -0.145058D+01 -0.322652D+01
      3   0.447046D+02 -0.425310D+03  0.256975D+02 -0.322652D+01 -0.506824D+02
                31            32            33            34            35 
      1   0.282215D+01 -0.461023D+01  0.299116D+01  0.143342D+02 -0.444980D+01
      2  -0.461023D+01 -0.393828D+01  0.127107D+02 -0.444980D+01 -0.274901D-01
      3   0.299116D+01  0.127107D+02 -0.578159D+02 -0.566076D+02  0.667297D+01
                36            37            38            39            40 
      1  -0.566076D+02  0.141446D+02  0.906304D+01 -0.456366D+02  0.227912D+02
      2   0.667297D+01  0.906304D+01  0.244810D+01 -0.251824D+02  0.163749D+02
      3   0.236229D+03 -0.456366D+02 -0.251824D+02  0.139691D+03 -0.446744D+02
                41            42            43            44            45 
      1   0.163749D+02 -0.446744D+02 -0.383151D+02 -0.156073D+02  0.111838D+03
      2   0.149961D+02 -0.515943D+02 -0.156073D+02 -0.138451D+02  0.594924D+02
      3  -0.515943D+02  0.935115D+02  0.111838D+03  0.594924D+02 -0.355860D+03
                46            47            48            49            50 
      1  -0.727103D+02  0.521690D+01  0.144655D+03  0.356065D+02 -0.455078D+01
      2   0.521690D+01 -0.309393D+01  0.317459D+01 -0.455078D+01 -0.895550D+00
      3   0.144655D+03  0.317459D+01 -0.348996D+03 -0.473839D+02  0.771737D+01
                51            52            53            54            55 
      1  -0.473839D+02  0.820200D+02 -0.347882D+01 -0.178511D+03 -0.288334D+02
      2   0.771737D+01 -0.347882D+01 -0.627807D+00  0.770618D+01  0.141719D+02
      3   0.867091D+01 -0.178511D+03  0.770618D+01  0.402788D+03 -0.390366D+02
                56            57            58            59            60 
      1   0.141719D+02 -0.390366D+02  0.983649D+01 -0.232174D+02 -0.226106D+02
      2  -0.181440D+02 -0.322333D+02 -0.232174D+02  0.102025D+02 -0.218407D+02
      3  -0.322333D+02  0.852983D+02 -0.226106D+02 -0.218407D+02  0.366625D+02
                61            62            63            64            65 
      1   0.131349D+01  0.182303D+01  0.307292D+01  0.169862D+02  0.101964D+02
      2   0.182303D+01  0.500005D-01 -0.255992D+02  0.101964D+02  0.725820D+01
      3   0.307292D+01 -0.255992D+02 -0.867320D+02  0.351385D+02  0.575557D+01
                66            67            68            69            70 
      1   0.351385D+02  0.415048D+01  0.116009D+02  0.236882D+02  0.160577D+01
      2   0.575557D+01  0.116009D+02  0.865497D+01  0.113532D+02 -0.126693D+01
      3  -0.111928D+03  0.236882D+02  0.113532D+02 -0.260119D+02  0.152198D+02
                71            72            73            74            75 
      1  -0.126693D+01  0.152198D+02  0.434089D+02 -0.993363D+01 -0.593556D+02
      2   0.231470D+01  0.189431D+02 -0.993363D+01  0.864149D+01 -0.363523D+01
      3   0.189431D+02  0.246359D+02 -0.593556D+02 -0.363523D+01  0.162614D+03
                76            77            78            79            80 
      1  -0.387289D+02  0.138314D+02  0.769779D+02  0.176161D+02  0.528172D+01
      2   0.138314D+02 -0.179338D+02  0.121093D+02  0.528172D+01  0.273097D+01
      3   0.769779D+02  0.121093D+02 -0.254060D+03 -0.453801D+02 -0.147151D+02
                81            82            83            84            85 
      1  -0.453801D+02 -0.152854D+02 -0.527764D+01  0.401875D+02  0.142654D+02
      2  -0.147151D+02 -0.527764D+01 -0.208647D+00  0.153545D+02  0.828814D+01
      3   0.143840D+03  0.401875D+02  0.153545D+02 -0.105458D+03 -0.406751D+02
                86            87            88            89            90 
      1   0.828814D+01 -0.406751D+02 -0.134618D+02 -0.593521D+01  0.373156D+02
      2   0.147064D+01 -0.154990D+02 -0.593521D+01 -0.350624D+01  0.204679D+02
      3  -0.154990D+02  0.108817D+03  0.373156D+02  0.204679D+02 -0.112652D+03
 End of Minotr F.D. properties file   788 does not exist.

 **********************************************************************

            Population analysis using the SCF density.

 **********************************************************************

 Orbital symmetries:
       Occupied  (A) (A) (A) (A) (A) (A) (A) (A) (A) (A) (A) (A)
                 (A) (A) (A) (A)
       Virtual   (A) (A) (A) (A) (A) (A) (A) (A) (A) (A) (A) (A)
                 (A) (A) (A) (A) (A) (A) (A) (A) (A) (A) (A) (A)
                 (A) (A) (A) (A) (A) (A) (A) (A) (A) (A) (A) (A)
                 (A) (A) (A) (A) (A) (A) (A) (A) (A) (A) (A) (A)
                 (A) (A) (A) (A) (A) (A) (A) (A)
 The electronic state is 1-A.
 Alpha  occ. eigenvalues --  -19.15086 -10.24149 -10.23386 -10.18497  -1.06363
 Alpha  occ. eigenvalues --   -0.74404  -0.65771  -0.59400  -0.50366  -0.46492
 Alpha  occ. eigenvalues --   -0.42488  -0.40236  -0.37304  -0.36584  -0.29790
 Alpha  occ. eigenvalues --   -0.26247
 Alpha virt. eigenvalues --    0.10580   0.11029   0.12717   0.13313   0.14206
 Alpha virt. eigenvalues --    0.17319   0.17734   0.18254   0.25845   0.31858
 Alpha virt. eigenvalues --    0.47513   0.51508   0.54042   0.57387   0.58789
 Alpha virt. eigenvalues --    0.62549   0.65400   0.70923   0.75931   0.81549
 Alpha virt. eigenvalues --    0.86742   0.86961   0.89208   0.91603   0.94023
 Alpha virt. eigenvalues --    0.95939   0.98558   1.03081   1.06008   1.25667
 Alpha virt. eigenvalues --    1.39063   1.43952   1.47440   1.60663   1.66319
 Alpha virt. eigenvalues --    1.74967   1.80685   1.89047   1.97881   2.02088
 Alpha virt. eigenvalues --    2.10974   2.13941   2.16006   2.26989   2.30023
 Alpha virt. eigenvalues --    2.32283   2.40624   2.51124   2.58528   2.70472
 Alpha virt. eigenvalues --    2.84821   2.92962   3.76963   4.15933   4.26177
 Alpha virt. eigenvalues --    4.45501
          Condensed to atoms (all electrons):
               1          2          3          4          5          6
     1  C    4.760474   0.332648   0.162524   0.372503  -0.019027  -0.019312
     2  C    0.332648   4.937327   0.169420  -0.029576   0.366987   0.363213
     3  O    0.162524   0.169420   8.234053  -0.031775  -0.032108  -0.028052
     4  H    0.372503  -0.029576  -0.031775   0.601753   0.001311  -0.000306
     5  H   -0.019027   0.366987  -0.032108   0.001311   0.585382  -0.050292
     6  H   -0.019312   0.363213  -0.028052  -0.000306  -0.050292   0.585820
     7  C    0.384919  -0.028281  -0.035300  -0.058474  -0.001015   0.000988
     8  H   -0.024349  -0.003013   0.003269   0.002149  -0.000289   0.000246
     9  H   -0.030226   0.004487  -0.002037  -0.002846   0.000082  -0.000141
    10  H   -0.031241  -0.003680   0.001688   0.004862   0.002696   0.000141
               7          8          9         10
     1  C    0.384919  -0.024349  -0.030226  -0.031241
     2  C   -0.028281  -0.003013   0.004487  -0.003680
     3  O   -0.035300   0.003269  -0.002037   0.001688
     4  H   -0.058474   0.002149  -0.002846   0.004862
     5  H   -0.001015  -0.000289   0.000082   0.002696
     6  H    0.000988   0.000246  -0.000141   0.000141
     7  C    5.108011   0.350559   0.371830   0.370414
     8  H    0.350559   0.578449  -0.031736  -0.025048
     9  H    0.371830  -0.031736   0.558374  -0.029336
    10  H    0.370414  -0.025048  -0.029336   0.551396
 Mulliken charges:
               1
     1  C    0.111086
     2  C   -0.109532
     3  O   -0.441683
     4  H    0.140398
     5  H    0.146272
     6  H    0.147693
     7  C   -0.463653
     8  H    0.149760
     9  H    0.161549
    10  H    0.158109
 Sum of Mulliken charges =   0.00000
 Mulliken charges with hydrogens summed into heavy atoms:
               1
     1  C    0.251484
     2  C    0.184433
     3  O   -0.441683
     7  C    0.005766
 APT charges:
               1
     1  C    0.382155
     2  C    0.275425
     3  O   -0.536756
     4  H   -0.057380
     5  H   -0.026893
     6  H   -0.034280
     7  C    0.042368
     8  H   -0.018601
     9  H   -0.018186
    10  H   -0.007853
 Sum of APT charges =   0.00000
 APT charges with hydrogens summed into heavy atoms:
               1
     1  C    0.324776
     2  C    0.214252
     3  O   -0.536756
     7  C   -0.002272
 Electronic spatial extent (au):  <R**2>=            267.9945
 Charge=              0.0000 electrons
 Dipole moment (field-independent basis, Debye):
    X=              0.8494    Y=              1.6449    Z=              0.6721  Tot=              1.9695
 Quadrupole moment (field-independent basis, Debye-Ang):
   XX=            -24.1055   YY=            -25.9282   ZZ=            -23.9477
   XY=             -2.2380   XZ=             -0.3979   YZ=             -1.0263
 Traceless Quadrupole moment (field-independent basis, Debye-Ang):
   XX=              0.5550   YY=             -1.2677   ZZ=              0.7128
   XY=             -2.2380   XZ=             -0.3979   YZ=             -1.0263
 Octapole moment (field-independent basis, Debye-Ang**2):
  XXX=             -3.8109  YYY=             -1.8762  ZZZ=             -0.3266  XYY=              0.3730
  XXY=              1.2503  XXZ=              0.8481  XZZ=             -1.1844  YZZ=             -0.2580
  YYZ=             -0.2740  XYZ=              0.4065
 Hexadecapole moment (field-independent basis, Debye-Ang**3):
 XXXX=           -215.1210 YYYY=            -72.7022 ZZZZ=            -53.4681 XXXY=             -1.3164
 XXXZ=              0.0344 YYYX=             -0.1186 YYYZ=             -0.1432 ZZZX=              0.1193
 ZZZY=             -1.1938 XXYY=            -46.8614 XXZZ=            -45.1820 YYZZ=            -21.2911
 XXYZ=              1.2794 YYXZ=              0.8242 ZZXY=              0.3980
 N-N= 1.244011109126D+02 E-N=-6.986738322395D+02  KE= 1.913363435682D+02
  Exact polarizability:  39.158  -3.602  30.003   0.873  -1.828  31.336
 Approx polarizability:  48.833  -3.381  44.421   3.270  -1.038  42.839
 Calling FoFJK, ICntrl=    100127 FMM=F ISym2X=0 I1Cent= 0 IOpClX= 0 NMat=1 NMatS=1 NMatT=0.
 Full mass-weighted force constant matrix:
 Low frequencies ---    0.0005    0.0010    0.0010    4.3660   15.3854   17.3329
 Low frequencies ---  215.8957  364.4902  410.8229
 Diagonal vibrational polarizability:
        2.3407690       1.8364069       1.1076647
 Diagonal vibrational hyperpolarizability:
        3.4337520      15.6960839      -2.6231919
 Harmonic frequencies (cm**-1), IR intensities (KM/Mole), Raman scattering
 activities (A**4/AMU), depolarization ratios for plane and unpolarized
 incident light, reduced masses (AMU), force constants (mDyne/A),
 and normal coordinates:
 Incident light (cm**-1):       0.00  66666.67  71428.57
                      1                      2                      3
                      A                      A                      A
 Frequencies --    215.8820               364.4858               410.8175
 Red. masses --      1.0947                 2.3626                 2.4125
 Frc consts  --      0.0301                 0.1849                 0.2399
 IR Inten    --      0.5211                 3.6164                 4.4318
 Raman Activ --      0.1552                 0.6974                 0.8321
 Depolar (P) --      0.7340                 0.6387                 0.2591
 Depolar (U) --      0.8466                 0.7795                 0.4115
 RamAct Fr= 1--      0.1552                 0.6974                 0.8321
  Dep-P Fr= 1--      0.7340                 0.6387                 0.2591
  Dep-U Fr= 1--      0.8466                 0.7795                 0.4115
 RamAct Fr= 2--      1.8692                13.5769                11.4781
  Dep-P Fr= 2--      0.7250                 0.2696                 0.2042
  Dep-U Fr= 2--      0.8406                 0.4247                 0.3392
 RamAct Fr= 3--    572.6385               727.8567               550.5898
  Dep-P Fr= 3--      0.3771                 0.3186                 0.3616
  Dep-U Fr= 3--      0.5476                 0.4832                 0.5311
  Atom  AN      X      Y      Z        X      Y      Z        X      Y      Z
     1   6     0.00  -0.05   0.00     0.01  -0.17   0.01    -0.04   0.00   0.20
     2   6     0.02   0.02   0.04     0.18   0.03  -0.07     0.09   0.01  -0.03
     3   8    -0.02   0.02  -0.04    -0.14  -0.05   0.07     0.15   0.02  -0.05
     4   1     0.00  -0.10  -0.01     0.01  -0.14   0.01    -0.09  -0.07   0.19
     5   1     0.03   0.06   0.07     0.43  -0.09  -0.13     0.39   0.08   0.05
     6   1     0.04   0.01   0.06     0.18   0.31  -0.19    -0.12  -0.05  -0.28
     7   6     0.00   0.01   0.01    -0.03   0.13  -0.01    -0.20  -0.02  -0.06
     8   1    -0.24   0.40  -0.35    -0.25   0.18   0.18     0.01  -0.01  -0.33
     9   1     0.27   0.21   0.47     0.24   0.27  -0.25    -0.21  -0.05  -0.24
    10   1    -0.04  -0.52  -0.11    -0.11   0.39   0.06    -0.60  -0.10  -0.04
                      4                      5                      6
                      A                      A                      A
 Frequencies --    783.3009               856.4732               913.3983
 Red. masses --      3.3869                 3.0233                 1.2660
 Frc consts  --      1.2244                 1.3066                 0.6223
 IR Inten    --      6.8103                35.7695                 2.6299
 Raman Activ --      9.6805                 9.2903                 7.0962
 Depolar (P) --      0.5770                 0.7072                 0.7495
 Depolar (U) --      0.7318                 0.8285                 0.8568
 RamAct Fr= 1--      9.6805                 9.2903                 7.0962
  Dep-P Fr= 1--      0.5770                 0.7072                 0.7495
  Dep-U Fr= 1--      0.7318                 0.8285                 0.8568
 RamAct Fr= 2--    112.0348                74.6400               113.8897
  Dep-P Fr= 2--      0.6818                 0.6807                 0.4190
  Dep-U Fr= 2--      0.8108                 0.8100                 0.5906
 RamAct Fr= 3--   3849.3050             32161.8399              1083.2871
  Dep-P Fr= 3--      0.3576                 0.3633                 0.7408
  Dep-U Fr= 3--      0.5268                 0.5329                 0.8511
  Atom  AN      X      Y      Z        X      Y      Z        X      Y      Z
     1   6    -0.08  -0.07  -0.21     0.04   0.22   0.01    -0.04   0.04  -0.02
     2   6     0.08   0.20   0.05     0.19  -0.10   0.05     0.00   0.04   0.07
     3   8     0.19  -0.10   0.05    -0.13  -0.14  -0.13    -0.01  -0.08   0.01
     4   1     0.04   0.25  -0.13    -0.05   0.33   0.02     0.21  -0.22  -0.08
     5   1    -0.25   0.04  -0.06     0.03   0.04   0.14     0.51   0.13   0.17
     6   1     0.29   0.10   0.33     0.55   0.12   0.43    -0.32   0.01  -0.34
     7   6    -0.21  -0.04   0.02    -0.08   0.05   0.05     0.01   0.06  -0.05
     8   1    -0.47  -0.04   0.34     0.17  -0.06  -0.06     0.13  -0.10   0.06
     9   1    -0.19   0.00   0.22    -0.35  -0.10   0.14    -0.29  -0.09   0.26
    10   1     0.14   0.04   0.01    -0.08  -0.08   0.02     0.38  -0.10  -0.12
                      7                      8                      9
                      A                      A                      A
 Frequencies --    986.1110              1047.3061              1139.9937
 Red. masses --      2.5043                 1.1460                 1.4251
 Frc consts  --      1.4348                 0.7406                 1.0912
 IR Inten    --     14.6890                 7.1618                 7.0190
 Raman Activ --      4.2509                 1.4166                 5.6847
 Depolar (P) --      0.2418                 0.5360                 0.7018
 Depolar (U) --      0.3895                 0.6979                 0.8248
 RamAct Fr= 1--      4.2509                 1.4166                 5.6847
  Dep-P Fr= 1--      0.2418                 0.5360                 0.7018
  Dep-U Fr= 1--      0.3895                 0.6979                 0.8248
 RamAct Fr= 2--     19.1646                 9.3775                27.0462
  Dep-P Fr= 2--      0.1310                 0.3622                 0.6715
  Dep-U Fr= 2--      0.2317                 0.5318                 0.8035
 RamAct Fr= 3--   4985.1775              7735.1598             21881.0103
  Dep-P Fr= 3--      0.3509                 0.3421                 0.3512
  Dep-U Fr= 3--      0.5195                 0.5098                 0.5198
  Atom  AN      X      Y      Z        X      Y      Z        X      Y      Z
     1   6    -0.14  -0.04   0.01    -0.02   0.03   0.03    -0.03   0.09   0.03
     2   6    -0.02   0.20   0.04     0.01   0.00   0.00    -0.09  -0.02   0.07
     3   8     0.01  -0.17  -0.03    -0.02  -0.03  -0.01     0.04  -0.03  -0.05
     4   1    -0.44   0.18   0.06    -0.03   0.56   0.14    -0.04  -0.13  -0.01
     5   1    -0.12   0.09  -0.02     0.16   0.37   0.26     0.31  -0.29  -0.06
     6   1    -0.03   0.11   0.05    -0.14  -0.32  -0.07     0.12   0.72   0.06
     7   6     0.18   0.04   0.03     0.02  -0.07  -0.05     0.02  -0.08  -0.03
     8   1     0.47   0.07  -0.39    -0.31   0.05   0.16    -0.27   0.06   0.09
     9   1     0.13  -0.02  -0.32     0.33   0.12  -0.07     0.32   0.10  -0.07
    10   1    -0.31  -0.07   0.04     0.13   0.16  -0.01     0.05   0.16   0.02
                     10                     11                     12
                      A                      A                      A
 Frequencies --   1159.3918              1173.2886              1198.5013
 Red. masses --      1.3706                 1.7223                 1.6456
 Frc consts  --      1.0854                 1.3969                 1.3927
 IR Inten    --      0.8482                 5.3428                 1.4824
 Raman Activ --      3.9267                 6.5168                 3.8672
 Depolar (P) --      0.7334                 0.7486                 0.4675
 Depolar (U) --      0.8462                 0.8562                 0.6371
 RamAct Fr= 1--      3.9267                 6.5168                 3.8672
  Dep-P Fr= 1--      0.7334                 0.7486                 0.4675
  Dep-U Fr= 1--      0.8462                 0.8562                 0.6371
 RamAct Fr= 2--     54.0315                61.4837                40.8207
  Dep-P Fr= 2--      0.5990                 0.7498                 0.3036
  Dep-U Fr= 2--      0.7492                 0.8570                 0.4658
 RamAct Fr= 3--  13456.6713             12652.8231             11336.5036
  Dep-P Fr= 3--      0.3266                 0.3047                 0.2947
  Dep-U Fr= 3--      0.4923                 0.4671                 0.4552
  Atom  AN      X      Y      Z        X      Y      Z        X      Y      Z
     1   6     0.04   0.01   0.04    -0.09  -0.13   0.11    -0.05   0.07   0.15
     2   6     0.07   0.06   0.11     0.00  -0.05   0.00     0.04   0.07  -0.09
     3   8    -0.04  -0.01  -0.07     0.03   0.06  -0.03    -0.01  -0.06   0.00
     4   1     0.13   0.17   0.08    -0.22   0.45   0.24     0.06  -0.64   0.01
     5   1    -0.37  -0.58  -0.36    -0.02  -0.19  -0.09    -0.46   0.20  -0.06
     6   1    -0.37  -0.13  -0.37     0.24   0.21   0.21     0.17  -0.18   0.17
     7   6    -0.01  -0.02  -0.02     0.02   0.08  -0.11     0.01  -0.02  -0.09
     8   1    -0.10   0.00   0.08     0.17  -0.15   0.08    -0.13  -0.03   0.11
     9   1     0.03   0.02   0.04    -0.18  -0.02   0.21     0.13   0.07   0.11
    10   1     0.04   0.04  -0.01     0.51  -0.09  -0.19     0.32   0.12  -0.08
                     13                     14                     15
                      A                      A                      A
 Frequencies --   1304.9788              1430.0046              1463.6797
 Red. masses --      1.5871                 1.2728                 1.6077
 Frc consts  --      1.5924                 1.5335                 2.0293
 IR Inten    --      4.0909                 4.6889                19.6727
 Raman Activ --     18.9224                 3.4272                10.3020
 Depolar (P) --      0.3215                 0.6389                 0.4703
 Depolar (U) --      0.4866                 0.7797                 0.6397
 RamAct Fr= 1--     18.9224                 3.4272                10.3020
  Dep-P Fr= 1--      0.3215                 0.6389                 0.4703
  Dep-U Fr= 1--      0.4866                 0.7797                 0.6397
 RamAct Fr= 2--    356.1616                30.0379               431.7683
  Dep-P Fr= 2--      0.3242                 0.4615                 0.3137
  Dep-U Fr= 2--      0.4897                 0.6315                 0.4776
 RamAct Fr= 3--   3876.8425             29308.2156              2001.9025
  Dep-P Fr= 3--      0.2746                 0.3181                 0.5490
  Dep-U Fr= 3--      0.4309                 0.4826                 0.7088
  Atom  AN      X      Y      Z        X      Y      Z        X      Y      Z
     1   6     0.10  -0.07   0.08     0.09  -0.01   0.02     0.18  -0.02   0.00
     2   6    -0.11   0.07  -0.07    -0.03   0.01  -0.01    -0.04   0.03   0.00
     3   8    -0.02  -0.06  -0.05     0.00  -0.02   0.00    -0.01  -0.04   0.00
     4   1     0.82   0.26   0.16    -0.38  -0.01   0.02    -0.57  -0.01  -0.01
     5   1    -0.11   0.22   0.02    -0.10   0.14   0.06    -0.15   0.21   0.10
     6   1     0.04   0.31   0.05    -0.06   0.16  -0.09    -0.15   0.23  -0.19
     7   6    -0.02   0.02   0.03     0.08   0.03  -0.08    -0.13   0.00   0.01
     8   1     0.07  -0.04   0.02    -0.35   0.02   0.43     0.33  -0.26  -0.10
     9   1    -0.06  -0.01   0.02    -0.35  -0.19   0.30     0.29   0.25   0.07
    10   1    -0.08  -0.08   0.02    -0.45  -0.06  -0.03     0.31   0.01  -0.03
                     16                     17                     18
                      A                      A                      A
 Frequencies --   1513.9869              1527.6102              1559.2790
 Red. masses --      1.0473                 1.0503                 1.3788
 Frc consts  --      1.4144                 1.4440                 1.9752
 IR Inten    --      3.5756                 4.8130                 4.9923
 Raman Activ --     14.4251                16.1256                 4.7579
 Depolar (P) --      0.7490                 0.7472                 0.7270
 Depolar (U) --      0.8565                 0.8553                 0.8419
 RamAct Fr= 1--     14.4251                16.1256                 4.7579
  Dep-P Fr= 1--      0.7490                 0.7472                 0.7270
  Dep-U Fr= 1--      0.8565                 0.8553                 0.8419
 RamAct Fr= 2--     59.9130                42.1563               154.5784
  Dep-P Fr= 2--      0.6694                 0.7451                 0.1107
  Dep-U Fr= 2--      0.8020                 0.8540                 0.1993
 RamAct Fr= 3--    955.1235             20295.6804             96022.4340
  Dep-P Fr= 3--      0.5538                 0.3264                 0.3025
  Dep-U Fr= 3--      0.7128                 0.4921                 0.4645
  Atom  AN      X      Y      Z        X      Y      Z        X      Y      Z
     1   6    -0.02   0.03   0.00     0.03   0.00   0.02     0.10   0.00   0.03
     2   6     0.00   0.01   0.00     0.00  -0.01   0.00    -0.09   0.10  -0.03
     3   8     0.00   0.00   0.00     0.00  -0.01   0.00    -0.02  -0.02  -0.01
     4   1     0.04  -0.04  -0.02    -0.11  -0.01   0.02    -0.18  -0.02   0.03
     5   1     0.09  -0.08  -0.04    -0.12   0.09   0.05     0.53  -0.34  -0.24
     6   1     0.03  -0.10   0.07    -0.04   0.12  -0.09     0.10  -0.49   0.43
     7   6    -0.01   0.05  -0.01     0.00   0.02   0.05    -0.02   0.00   0.00
     8   1     0.08  -0.33   0.50    -0.34   0.30  -0.05    -0.10   0.09  -0.05
     9   1     0.29   0.18  -0.26    -0.25  -0.20  -0.60    -0.11  -0.06  -0.02
    10   1    -0.15  -0.61  -0.14     0.40  -0.33  -0.08     0.11   0.04   0.00
                     19                     20                     21
                      A                      A                      A
 Frequencies --   3050.3857              3098.1212              3107.5127
 Red. masses --      1.0359                 1.0509                 1.0889
 Frc consts  --      5.6793                 5.9429                 6.1952
 IR Inten    --     18.6746                28.8938                14.8865
 Raman Activ --    110.6835                70.7118               162.3548
 Depolar (P) --      0.0225                 0.1377                 0.3099
 Depolar (U) --      0.0440                 0.2420                 0.4732
 RamAct Fr= 1--    110.6835                70.7118               162.3548
  Dep-P Fr= 1--      0.0225                 0.1377                 0.3099
  Dep-U Fr= 1--      0.0440                 0.2420                 0.4732
 RamAct Fr= 2--   1024.2966               905.6779              1755.2767
  Dep-P Fr= 2--      0.0818                 0.2182                 0.3684
  Dep-U Fr= 2--      0.1512                 0.3583                 0.5384
 RamAct Fr= 3--  41305.5149            379030.4755            163877.3658
  Dep-P Fr= 3--      0.2017                 0.3194                 0.3360
  Dep-U Fr= 3--      0.3357                 0.4841                 0.5030
  Atom  AN      X      Y      Z        X      Y      Z        X      Y      Z
     1   6     0.00   0.00   0.00     0.00   0.00  -0.02     0.00   0.02  -0.08
     2   6     0.00   0.00   0.00    -0.04   0.04  -0.01     0.01  -0.01   0.01
     3   8     0.00   0.00   0.00     0.00   0.00   0.00     0.00   0.00   0.00
     4   1     0.00   0.01  -0.04     0.00  -0.05   0.22    -0.01  -0.19   0.88
     5   1     0.00  -0.01   0.02    -0.07  -0.37   0.58     0.03   0.12  -0.19
[...]
   zzy        0.280718D+03      0.242519D+01      0.900084D+00
   xxz        0.126256D+03      0.109075D+01      0.404821D+00
   yxz       -0.202748D+01     -0.175158D-01     -0.650082D-02
   yyz       -0.284498D+02     -0.245784D+00     -0.912203D-01
   zxz       -0.664135D+02     -0.573761D+00     -0.212946D+00
   zyz        0.138978D+03      0.120067D+01      0.445615D+00
   zzz        0.301234D+03      0.260243D+01      0.965865D+00
 Beta(-w;w,0) w=  140.0nm:
                  (au)         (10**-30 esu)      (10**-50 SI)
   || (z)     0.119782D+04      0.103483D+02      0.384065D+01
   _|_(z)     0.132073D+04      0.114101D+02      0.423473D+01
   x          0.780863D+04      0.674604D+02      0.250373D+02
   y          0.168704D+05      0.145747D+03      0.540925D+02
   z          0.598911D+04      0.517413D+02      0.192033D+02
   ||         0.390617D+04      0.337463D+02      0.125246D+02
   xxx        0.154739D+03      0.133683D+01      0.496150D+00
   yxx        0.363015D+03      0.313617D+01      0.116396D+01
   yyx        0.202341D+03      0.174807D+01      0.648779D+00
   zxx       -0.111309D+04     -0.961623D+01     -0.356897D+01
   zyx       -0.687820D+03     -0.594223D+01     -0.220540D+01
   zzx        0.826617D+04      0.714132D+02      0.265043D+02
   xxy        0.189832D+04      0.164000D+02      0.608670D+01
   yxy        0.550811D+03      0.475858D+01      0.176610D+01
   yyy        0.261282D+03      0.225727D+01      0.837765D+00
   zxy       -0.423964D+04     -0.366272D+02     -0.135938D+02
   zyy       -0.126084D+04     -0.108927D+02     -0.404271D+01
   zzy        0.113499D+05      0.980539D+02      0.363917D+02
   xxz        0.550857D+03      0.475898D+01      0.176625D+01
   yxz       -0.297873D+03     -0.257339D+01     -0.955089D+00
   yyz       -0.160424D+03     -0.138593D+01     -0.514376D+00
   zxz       -0.111286D+04     -0.961426D+01     -0.356824D+01
   zyz        0.105617D+04      0.912446D+01      0.338645D+01
   zzz        0.344885D+04      0.297953D+02      0.110582D+02

 ----------------------------------------------------------------------

 Dipole orientation:
     6         -0.13228173         -0.88425210          0.38000449
     6         -1.96411343          1.18317800          0.08046761
     8         -0.74693933          0.08760606         -2.07627424
     1         -0.88898260         -2.77402383          0.72820704
     1         -1.39495010          3.11352143          0.52832758
     1         -3.98455450          0.80894553          0.24351432
     6          2.52969132         -0.44097617          1.29443130
     1          2.67171258         -0.78102593          3.33400522
     1          3.85220761         -1.71903261          0.34130225
     1          3.12032438          1.50308108          0.90541172

 Electric dipole moment (dipole orientation):
 (Debye = 10**-18 statcoulomb cm , SI units = C m)
                  (au)            (Debye)         (10**-30 SI)
   Tot        0.774855D+00      0.196949D+01      0.656949D+01
   x          0.000000D+00      0.000000D+00      0.000000D+00
   y          0.000000D+00      0.000000D+00      0.000000D+00
   z          0.774855D+00      0.196949D+01      0.656949D+01

 Dipole polarizability, Alpha (dipole orientation).
 (esu units = cm**3 , SI units = C**2 m**2 J**-1)
 Alpha(0;0):
               (au)            (10**-24 esu)      (10**-40 SI)
   iso        0.334986D+02      0.496399D+01      0.552318D+01
   aniso      0.111636D+02      0.165428D+01      0.184063D+01
   xx         0.376366D+02      0.557718D+01      0.620544D+01
   yx        -0.394519D+01     -0.584617D+00     -0.650475D+00
   yy         0.343785D+02      0.509437D+01      0.566825D+01
   zx         0.195057D+01      0.289045D+00      0.321606D+00
   zy        -0.796561D+00     -0.118038D+00     -0.131335D+00
   zz         0.284807D+02      0.422041D+01      0.469584D+01
 Alpha(-w;w) w=  150.0nm:
                  (au)         (10**-24 esu)      (10**-40 SI)
   iso        0.520062D+02      0.770652D+01      0.857466D+01
   aniso      0.250238D+02      0.370815D+01      0.412587D+01
   xx         0.622514D+02      0.922470D+01      0.102639D+02
   yx        -0.739458D+01     -0.109576D+01     -0.121920D+01
   yy         0.543440D+02      0.805295D+01      0.896012D+01
   zx         0.349636D+01      0.518107D+00      0.576472D+00
   zy        -0.272864D+01     -0.404343D+00     -0.449892D+00
   zz         0.394232D+02      0.584191D+01      0.650000D+01
 Alpha(-w;w) w=  140.0nm:
                  (au)         (10**-24 esu)      (10**-40 SI)
   iso        0.716102D+02      0.106115D+02      0.118069D+02
   aniso      0.473869D+02      0.702201D+01      0.781304D+01
   xx         0.891955D+02      0.132174D+02      0.147064D+02
   yx         0.106775D+02      0.158225D+01      0.176049D+01
   yy         0.816186D+02      0.120946D+02      0.134571D+02
   zx         0.570571D+00      0.845499D-01      0.940744D-01
   zy        -0.698239D+01     -0.103468D+01     -0.115124D+01
   zz         0.440163D+02      0.652255D+01      0.725731D+01

 First dipole hyperpolarizability, Beta (dipole orientation).
 ||, _|_  parallel and perpendicular components, (z) with respect to z axis,
 vector components x,y,z.  Values do not include the 1/n! factor of 1/2.
 (esu units = statvolt**-1 cm**4 , SI units = C**3 m**3 J**-2)
 Beta(0;0,0):
               (au)            (10**-30 esu)      (10**-50 SI)
   || (z)     0.522198D+02      0.451139D+00      0.167436D+00
   _|_(z)     0.174066D+02      0.150380D+00      0.558119D-01
   x         -0.420971D+02     -0.363686D+00     -0.134979D+00
   y         -0.216085D+02     -0.186681D+00     -0.692848D-01
   z          0.261099D+03      0.225569D+01      0.837179D+00
   ||         0.530705D+02      0.458488D+00      0.170163D+00
   xxx       -0.372653D+02     -0.321943D+00     -0.119486D+00
   xxy       -0.106391D+02     -0.919136D-01     -0.341128D-01
   yxy        0.621075D+01      0.536560D-01      0.199139D-01
   yyy        0.171111D+02      0.147826D+00      0.548643D-01
   xxz        0.149546D+02      0.129196D+00      0.479498D-01
   yxz       -0.710622D+00     -0.613922D-02     -0.227851D-02
   yyz        0.211313D+02      0.182558D+00      0.677546D-01
   zxz        0.170222D+02      0.147058D+00      0.545792D-01
   zyz       -0.136748D+02     -0.118140D+00     -0.438464D-01
   zzz        0.509472D+02      0.440144D+00      0.163355D+00
 Beta(-w;w,0) w=  150.0nm:
                  (au)         (10**-30 esu)      (10**-50 SI)
   || (z)     0.323327D+03      0.279329D+01      0.103670D+01
   _|_(z)     0.184126D+03      0.159070D+01      0.590373D+00
   x         -0.499305D+03     -0.431360D+01     -0.160095D+01
   y         -0.576016D+03     -0.497633D+01     -0.184691D+01
   z          0.161663D+04      0.139665D+02      0.518352D+01
   ||         0.357469D+03      0.308826D+01      0.114618D+01
   xxx       -0.203096D+03     -0.175459D+01     -0.651198D+00
   yxx       -0.164230D+03     -0.141882D+01     -0.526579D+00
   yyx       -0.566452D+02     -0.489371D+00     -0.181625D+00
   zxx        0.117811D+03      0.101780D+01      0.377746D+00
   zyx        0.476181D+01      0.411383D-01      0.152681D-01
   zzx        0.900586D+02      0.778036D+00      0.288760D+00
   xxy       -0.857480D+02     -0.740796D+00     -0.274939D+00
   yxy       -0.474608D+02     -0.410024D+00     -0.152176D+00
   yyy        0.544234D+02      0.470176D+00      0.174501D+00
   zxy        0.487240D+02      0.420937D+00      0.156227D+00
   zyy        0.133520D+03      0.115351D+01      0.428115D+00
   zzy       -0.762646D+02     -0.658866D+00     -0.244532D+00
   xxz        0.207781D+03      0.179507D+01      0.666223D+00
   yxz        0.410471D+02      0.354615D+00      0.131612D+00
   yyz        0.272600D+03      0.235505D+01      0.874055D+00
   zxz        0.857454D+02      0.740774D+00      0.274931D+00
   zyz       -0.124407D+03     -0.107478D+01     -0.398894D+00
   zzz        0.211196D+03      0.182457D+01      0.677172D+00
 Beta(-w;w,0) w=  140.0nm:
                  (au)         (10**-30 esu)      (10**-50 SI)
   || (z)     0.390030D+04      0.336956D+02      0.125058D+02
   _|_(z)     0.620591D+04      0.536143D+02      0.198984D+02
   x         -0.387424D+03     -0.334704D+01     -0.124222D+01
   y          0.997308D+03      0.861596D+01      0.319773D+01
   z          0.195015D+05      0.168478D+03      0.625289D+02
   ||         0.390617D+04      0.337463D+02      0.125246D+02
   xxx       -0.752427D+03     -0.650038D+01     -0.241255D+01
   yxx        0.782548D+03      0.676060D+01      0.250913D+01
   yyx        0.258761D+04      0.223549D+02      0.829680D+01
   zxx       -0.786536D+02     -0.679506D+00     -0.252192D+00
   zyx       -0.520622D+03     -0.449777D+01     -0.166930D+01
   zzx        0.308747D+03      0.266733D+01      0.989955D+00
   xxy        0.488041D+03      0.421629D+01      0.156484D+01
   yxy        0.669638D+03      0.578515D+01      0.214710D+01
   yyy        0.893914D+03      0.772272D+01      0.286621D+01
   zxy        0.807406D+03      0.697536D+01      0.258884D+01
   zyy        0.988336D+03      0.853845D+01      0.316896D+01
   zzy       -0.420832D+03     -0.363566D+01     -0.134934D+01
   xxz        0.683024D+04      0.590080D+02      0.219002D+02
   yxz        0.755338D+04      0.652554D+02      0.242189D+02
   yyz        0.879688D+04      0.759982D+02      0.282060D+02
   zxz       -0.118289D+04     -0.102192D+02     -0.379276D+01
   zyz       -0.165837D+04     -0.143270D+02     -0.531733D+01
   zzz        0.685010D+03      0.591795D+01      0.219639D+01

 ----------------------------------------------------------------------
 1|1|UNPC-X500|Freq|RB3LYP|6-31G(d)|C3H6O1|SOBEREVA|24-Jun-2017|0||# b3
 lyp/6-31g(d) cphf=rdfreq freq=raman||b3lyp/6-31g(d) opted||0,1|C,0.152
 086,-0.037817,0.489624|C,-1.045018,0.615161,-0.060166|O,-0.826733,-0.7
 89257,-0.243202|H,0.155196,-0.256318,1.560414|H,-0.957703,1.222452,-0.
 962333|H,-1.875545,0.879302,0.595764|C,1.511103,0.100621,-0.148651|H,2
 .089613,0.89551,0.337545|H,2.078013,-0.83315,-0.057721|H,1.41527,0.338
 468,-1.212906||Version=IA32W-G09RevD.01|State=1-A|HF=-193.1085181|RMSD
 =4.208e-009|RMSF=6.016e-005|ZeroPoint=0.0859617|Thermal=0.0903555|Dipo
 le=0.334161,0.6471609,0.264423|DipoleDeriv=0.5003212,0.0591715,0.01996
 2,0.1359682,0.25697,0.0474078,-0.0138296,-0.0112655,0.3891747,0.175524
 3,0.0133054,-0.08193,-0.0937569,0.3664827,-0.0426194,-0.0894025,0.0168
 328,0.2842691,-0.5093353,-0.1452613,-0.0531961,-0.1582695,-0.695778,-0
 .1505075,-0.0562409,-0.1486733,-0.4051549,-0.0524413,-0.0117274,0.0100
 49,-0.0064074,0.0508731,0.0523414,-0.0075015,0.0312164,-0.1705709,0.03
 07953,0.0128417,0.051491,0.0392444,-0.0376318,0.0753399,0.0197663,0.10
 03021,-0.073843,-0.0838635,0.0800439,0.0842276,0.0595252,0.0061069,0.0
 043235,0.0941528,-0.015554,-0.025083,-0.0139534,-0.030449,0.0373387,0.
 0136597,0.1166486,0.0245919,0.0541941,0.0374049,0.0244099,-0.0362809,-
 0.0617384,-0.0302755,-0.0946974,-0.0391047,-0.0674288,-0.0381678,-0.07
 69369,0.0195825,-0.0426607,0.0734165,0.0000327,0.1030072,-0.0802277,0.
 0132348,0.0222923,0.0235628,0.0683311,0.0318943,0.010397,-0.0376994,0.
 0017265,0.0556608,0.0433164,0.0147368,0.0431106,-0.1111155|Polar=39.15
 75634,-3.6021467,30.0027551,0.8734986,-1.828108,31.3355806|PolarDeriv=
 6.700054,-1.1323403,0.9771768,2.1921149,-0.1213591,-0.6340049,-0.49146
 01,3.7443426,-0.3831468,0.5175795,1.5664679,1.0861535,2.3693029,0.1874
 767,0.3192225,1.3868864,1.8874437,-5.2798325,-2.9349732,1.5329251,0.25
 05503,-3.4201351,1.2509573,0.3531365,-0.7754051,-1.188506,3.3186823,1.
 0429516,1.3724334,-2.7381676,-4.7048277,1.2189954,1.6167618,0.0343938,
 -1.1962409,1.3247092,-3.869251,-3.7702065,-0.7098541,-1.4762524,-0.164
 3113,0.4046548,-0.8493844,-2.3395804,-7.8972267,-0.7594798,-1.9170385,
 0.2881974,-1.172422,-0.6197669,-0.8502498,-1.4848605,-3.1658061,-1.900
 066,0.4884438,-0.2430463,-0.112194,1.8437572,-0.0434314,0.2974126,-0.0
 001175,-0.3902294,-0.9155489,0.0708657,2.0711462,-0.7576065,0.7121049,
 -0.0133813,0.6264132,0.1589218,-1.5017619,9.391489,-0.2430262,1.32566,
 0.1812926,-0.8715426,-0.2703826,-0.200239,0.6167155,-0.5025989,3.79592
 46,0.0577402,-3.0019628,1.8468714,-0.3003831,0.4099522,-1.823913,-0.67
 12937,2.7544986,-5.2231253,-6.5916371,1.8010285,-0.9336193,2.8373679,-
 0.4433146,-1.1818309,1.239903,-2.4128334,1.6244904,-0.7849986,1.145117
 6,0.8747952,2.8794254,-1.0437445,0.5213897,-2.753533,1.5481747,2.75800
 55,-2.7250263,0.6726882,-3.2293284,-1.5103294,-1.0827056,1.0211564,0.8
 284688,-4.6794898,1.5917874,-1.0238064,-1.3028372,-2.0773666,-1.24368,
 -1.0592523,-1.5540049,-0.7775618,-1.7904687,4.7734528,4.8563189,2.6124
 06,1.4141576,1.6639533,0.4893469,0.1107392,2.0430168,3.2941342,3.94029
 99,0.6820321,1.5377646,0.869898,1.6961324,0.6475013,0.9965606,1.697984
 7,2.0557938,1.6847769,4.8112536,-3.1902648,1.8186273,0.3844736,0.24867
 97,0.017127,-2.8041643,3.6694501,-5.7289837,0.2431771,0.3393408,-0.171
 8042,0.4998778,0.2694936,0.4460715,1.3960358,-1.597961,-0.2850544,-0.4
 921565,0.3911502,0.3431913,-1.6434074,0.1365209,-0.1881517,0.1924273,0
 .805311,0.6537216,-0.0460614,-1.810432,0.7790294,-0.7355305,0.0027259,
 -0.2982516,1.0130265,1.0063279,-7.2443551|HyperPolar=14.4381824,25.641
 8943,12.6914053,22.0940788,31.0424954,1.9808173,-2.5114427,0.2516405,2
 5.2658113,13.236785|PG=C01 [X(C3H6O1)]|NImag=0||0.60698262,-0.03451451
 ,0.28555463,0.03697444,-0.09044337,0.62966792,-0.21077129,0.08060807,-
 0.07137041,0.53120614,0.12874720,-0.04769318,0.08041357,-0.16161855,0.
 45410917,-0.06122623,0.05497133,-0.08781570,-0.10976593,-0.13875432,0.
 55730320,-0.11798996,-0.05436011,-0.04459970,-0.03365892,-0.00045784,0
 .01763662,0.17666097,-0.09177126,-0.08995808,-0.06101841,0.03875510,-0
 .22902126,-0.01475133,0.05173151,0.35409699,-0.05679088,-0.04141179,-0
 .10922202,0.02670486,-0.03525923,-0.05715487,0.05802526,0.08848212,0.1
 5002769,-0.05243257,-0.00251022,0.01296178,-0.00234279,0.00087664,-0.0
 2019267,-0.00652326,0.00353856,-0.02105865,0.06335862,0.00178752,-0.05
 864961,0.06593641,-0.00484055,-0.00753361,0.02299071,-0.00444238,0.006
 74420,-0.03090846,0.00407076,0.05463037,0.01193077,0.06181234,-0.30471
 856,-0.00033943,-0.00330340,-0.00307177,-0.01265836,-0.00163707,-0.012
 84577,-0.00112601,-0.06079160,0.32869100,0.00469680,0.01441127,-0.0238
 3208,-0.05455829,-0.00829779,0.02926852,-0.00042702,-0.00077032,0.0020
 1978,-0.00164781,0.00321363,0.00050284,0.05016796,-0.00043918,-0.00579
 720,-0.00544806,-0.01114709,-0.11591594,0.12025920,0.00637337,-0.02675
 932,0.02570231,-0.00096344,0.00142558,-0.00010707,0.00526616,0.1393760
 1,0.00469434,0.00516221,-0.01186009,0.02798583,0.12533237,-0.25169462,
 -0.00420767,-0.00444119,0.01677807,-0.00076808,0.00182217,0.00089238,-
 0.02731814,-0.13571796,0.25612911,-0.01343438,0.00239756,0.01870946,-0
 .21099258,0.04536814,0.13340485,0.00636011,0.00597732,-0.00800073,0.00
 097030,-0.00063726,-0.00056932,0.00027640,0.00011314,-0.00097675,0.218
 38940,-0.00159115,-0.00824952,0.00103631,0.03927522,-0.05537262,-0.025
 97915,0.03130915,-0.01549449,-0.01723145,0.00092978,0.00056077,-0.0000
 5785,-0.01245234,0.00748604,0.00878488,-0.05662163,0.06936324,-0.01378
 251,0.00167252,0.01217371,0.13261549,-0.02539572,-0.15800476,0.0048515
 4,-0.00669567,-0.00019389,0.00049887,-0.00131314,0.00001082,0.01917211
 ,-0.00505006,-0.01184091,-0.14179485,0.03384495,0.15795300,-0.18603176
 ,-0.00569733,0.05978374,-0.01815632,-0.00459420,0.00483764,-0.02332169
 ,-0.00518432,-0.00156278,0.00222703,0.00173692,-0.00080235,0.00152666,
 0.00008835,0.00116667,-0.00038932,-0.00063073,-0.00042088,0.51230514,0
 .00082605,-0.07617389,0.00905537,0.02214053,-0.00067329,-0.01801964,-0
 .03364794,-0.00160102,0.00932142,-0.00582015,0.00164307,0.00405494,-0.
 00124565,0.00029539,-0.00078078,0.00381677,0.00152938,0.00304875,-0.00
 733143,0.56749662,0.06527900,0.00864470,-0.12108273,-0.00489520,-0.003
 27683,0.00200059,-0.02086339,-0.00220942,0.00904318,0.02872829,0.00259
 260,-0.00955710,-0.00095162,0.00109069,0.00059701,-0.00103208,0.000161
 60,-0.00081116,0.03316439,0.00079735,0.57654460,-0.01277813,-0.0219556
 8,-0.01766164,0.00114355,-0.00106260,-0.00139673,-0.00761617,-0.000354
 46,0.00372129,0.00101582,0.00053702,0.00088337,-0.00025336,0.00032502,
 -0.00010729,-0.00003359,0.00025863,0.00013134,-0.12020007,-0.09933165,
 -0.05961361,0.13026634,-0.00004846,-0.00186511,-0.00095610,-0.00093688
 ,0.00013980,0.00029484,0.00075999,0.00136665,0.00075013,-0.00025714,0.
 00006239,0.00041135,-0.00000857,0.00007190,0.00002875,-0.00018811,0.00
 012183,-0.00009176,-0.09979237,-0.18736102,-0.08503417,0.11037346,0.20
 071020,0.00599746,0.01186680,0.00744847,-0.00074201,-0.00009297,0.0001
 8106,0.00352256,0.00075038,0.00043867,-0.00105235,-0.00030713,-0.00008
 779,0.00002586,-0.00028400,0.00004264,0.00000974,-0.00010916,-0.000072
 32,-0.06022391,-0.08493091,-0.10283880,0.06629690,0.09441316,0.1058891
 2,-0.01995642,0.02842000,-0.00437792,-0.00333051,0.00057892,0.00558293
 ,0.00356227,-0.00190135,-0.00114543,0.00092115,-0.00070709,0.00003309,
 0.00040870,-0.00000474,0.00015189,-0.00131465,-0.00059294,-0.00110807,
 -0.11576984,0.11443710,-0.01211306,0.01034213,-0.01559359,0.00254116,0
 .12690552,-0.00267240,0.00483753,-0.00093238,-0.00234060,0.00074008,-0
 .00018662,0.00215029,0.00122487,0.00039615,0.00055096,0.00018281,-0.00
 045492,-0.00013407,-0.00001018,-0.00008267,-0.00025568,0.00012917,-0.0
 0008660,0.11492115,-0.24312847,0.02051117,0.01217544,-0.01997491,0.002
 97507,-0.12652227,0.26123665,0.00882976,-0.01468709,0.00182207,0.00091
 221,0.00045894,-0.00185150,-0.00118788,0.00128588,0.00065625,-0.000671
 33,-0.00022343,0.00026590,0.00032896,-0.00020257,0.00028714,0.00038740
 ,-0.00012539,0.00055065,-0.01158967,0.02052259,-0.05269920,0.00860572,
 -0.01302223,0.00091053,0.01082627,-0.02243200,0.05113731,0.00171510,-0
 .00679906,0.03341232,0.00146102,0.00046009,0.00185101,0.00295369,-0.00
 002078,-0.00191273,-0.00554648,-0.00071857,0.00214539,-0.00019004,0.00
 038841,-0.00062080,0.00016832,0.00011599,-0.00016305,-0.05218981,0.006
 15639,-0.02770273,-0.00188651,0.00569167,-0.01637539,-0.00176835,0.002
 12719,-0.01644144,0.05528307,-0.00032381,-0.00200557,0.00235667,0.0001
 0476,0.00122084,-0.00082502,0.00058396,-0.00059854,0.00015880,-0.00041
 575,0.00093403,0.00007329,0.00001767,-0.00017228,-0.00010778,0.0000297
 6,-0.00007381,0.00006672,0.00648397,-0.06202677,0.05672231,-0.00096518
 ,0.00672827,-0.02428124,0.00188596,-0.00523755,0.02842531,-0.00740134,
 0.06123138,-0.00190614,0.00241235,-0.01641307,-0.00110541,-0.00012240,
 0.00010837,-0.00051897,0.00023470,0.00247269,0.00268014,0.00020187,0.0
 0042089,0.00078377,-0.00024247,0.00066927,-0.00013772,-0.00032473,0.00
 023486,-0.02435285,0.05693091,-0.30119638,-0.00085935,0.00320602,-0.01
 191158,-0.00039087,0.00029281,-0.00107916,0.02580741,-0.06258907,0.326
 69412||0.00006785,-0.00006163,0.00007427,-0.00000814,-0.00005352,-0.00
 008243,0.00008866,0.00010986,0.00004849,-0.00004099,-0.00001472,0.0000
 0425,0.00000646,0.00002568,0.00000356,-0.00003057,-0.00000479,0.000016
 17,-0.00022248,-0.00000175,-0.00000652,0.00004665,-0.00000509,-0.00001
 273,0.00007270,0.00000215,-0.00003254,0.00001985,0.00000382,-0.0000125
 3|||@


 FORGIVE MY NONSENSE AS I ALSO FORGIVE THOSE WHO THINK THEY TALK SENSE

                                                       -- ROBERT FROST
 Job cpu time:       0 days  0 hours  0 minutes 57.0 seconds.
 File lengths (MBytes):  RWF=     21 Int=      0 D2E=      0 Chk=      1 Scr=      1
 Normal termination of Gaussian 09 at Sat Jun 24 04:52:05 2017.
