 Entering Gaussian System, Link 0=g16
 Initial command:
 /sob/g16/l1.exe "/hard/gauscr/Gau-3695864.inp" -scrdir="/hard/gauscr/"
 Default is to use a total of  36 processors:
                               36 via shared-memory
                                1 via Linda
 Entering Link 1 = /sob/g16/l1.exe PID=   3695866.
  
 Copyright (c) 1988-2019, Gaussian, Inc.  All Rights Reserved.
  
 This is part of the Gaussian(R) 16 program.  It is based on
 the Gaussian(R) 09 system (copyright 2009, Gaussian, Inc.),
 the Gaussian(R) 03 system (copyright 2003, Gaussian, Inc.),
 the Gaussian(R) 98 system (copyright 1998, Gaussian, Inc.),
 the Gaussian(R) 94 system (copyright 1995, Gaussian, Inc.),
 the Gaussian 92(TM) system (copyright 1992, Gaussian, Inc.),
 the Gaussian 90(TM) system (copyright 1990, Gaussian, Inc.),
 the Gaussian 88(TM) system (copyright 1988, Gaussian, Inc.),
 the Gaussian 86(TM) system (copyright 1986, Carnegie Mellon
 University), and the Gaussian 82(TM) system (copyright 1983,
 Carnegie Mellon University). Gaussian is a federally registered
 trademark of Gaussian, Inc.
  
 This software contains proprietary and confidential information,
 including trade secrets, belonging to Gaussian, Inc.
  
 This software is provided under written license and may be
 used, copied, transmitted, or stored only in accord with that
 written license.
  
 The following legend is applicable only to US Government
 contracts under FAR:
  
                    RESTRICTED RIGHTS LEGEND
  
 Use, reproduction and disclosure by the US Government is
 subject to restrictions as set forth in subparagraphs (a)
 and (c) of the Commercial Computer Software - Restricted
 Rights clause in FAR 52.227-19.
  
 Gaussian, Inc.
 340 Quinnipiac St., Bldg. 40, Wallingford CT 06492
  
  
 ---------------------------------------------------------------
 Warning -- This program may not be used in any manner that
 competes with the business of Gaussian, Inc. or will provide
 assistance to any competitor of Gaussian, Inc.  The licensee
 of this program is prohibited from giving any competitor of
 Gaussian, Inc. access to this program.  By using this program,
 the user acknowledges that Gaussian, Inc. is engaged in the
 business of creating and licensing software in the field of
 computational chemistry and represents and warrants to the
 licensee that it is not a competitor of Gaussian, Inc. and that
 it will not use this program in any manner prohibited above.
 ---------------------------------------------------------------
  

 Cite this work as:
 Gaussian 16, Revision C.01,
 M. J. Frisch, G. W. Trucks, H. B. Schlegel, G. E. Scuseria, 
 M. A. Robb, J. R. Cheeseman, G. Scalmani, V. Barone, 
 G. A. Petersson, H. Nakatsuji, X. Li, M. Caricato, A. V. Marenich, 
 J. Bloino, B. G. Janesko, R. Gomperts, B. Mennucci, H. P. Hratchian, 
 J. V. Ortiz, A. F. Izmaylov, J. L. Sonnenberg, D. Williams-Young, 
 F. Ding, F. Lipparini, F. Egidi, J. Goings, B. Peng, A. Petrone, 
 T. Henderson, D. Ranasinghe, V. G. Zakrzewski, J. Gao, N. Rega, 
 G. Zheng, W. Liang, M. Hada, M. Ehara, K. Toyota, R. Fukuda, 
 J. Hasegawa, M. Ishida, T. Nakajima, Y. Honda, O. Kitao, H. Nakai, 
 T. Vreven, K. Throssell, J. A. Montgomery, Jr., J. E. Peralta, 
 F. Ogliaro, M. J. Bearpark, J. J. Heyd, E. N. Brothers, K. N. Kudin, 
 V. N. Staroverov, T. A. Keith, R. Kobayashi, J. Normand, 
 K. Raghavachari, A. P. Rendell, J. C. Burant, S. S. Iyengar, 
 J. Tomasi, M. Cossi, J. M. Millam, M. Klene, C. Adamo, R. Cammi, 
 J. W. Ochterski, R. L. Martin, K. Morokuma, O. Farkas, 
 J. B. Foresman, and D. J. Fox, Gaussian, Inc., Wallingford CT, 2019.
 
 ******************************************
 Gaussian 16:  ES64L-G16RevC.01  3-Jul-2019
                25-May-2022 
 ******************************************
 %chk=C18-B9N9.chk
 %mem=100GB
 %nprocshared=8
 Will use up to    8 processors via shared memory.
 Default route: IOp(8/117=-99) IOp(7/127=-99) scf=noincore
 ----------------------------------
 # opt freq=intmodes wB97XD/6-311G*
 ----------------------------------
 1/18=20,19=15,26=3,38=1/1,3;
 2/9=110,12=2,17=6,18=5,40=1/2;
 3/5=4,6=6,7=1,11=2,25=1,30=1,71=1,74=-58/1,2,3;
 4//1;
 5/5=2,38=5/2;
 6/7=2,8=2,9=2,10=2,28=1/1;
 7/127=-99/1,2,3,16;
 1/18=20,19=15,26=3/3(2);
 2/9=110/2;
 99//99;
 2/9=110/2;
 3/5=4,6=6,7=1,11=2,25=1,30=1,71=1,74=-58/1,2,3;
 4/5=5,16=3,69=1/1;
 5/5=2,38=5/2;
 7/127=-99/1,2,3,16;
 1/18=20,19=15,26=3/3(-5);
 2/9=110/2;
 6/7=2,8=2,9=2,10=2,19=2,28=1/1;
 99/9=1/99;
 -----------------------
 at wb97xd/6-311G* level
 -----------------------
 Symbolic Z-matrix:
 Charge =  0 Multiplicity = 1
 C                     0.68231  -0.13843   3.62631 
 C                    -0.5345   -0.04455   3.65338 
 C                    -1.80272   0.06413   3.22195 
 C                    -2.75077   0.15576   2.45843 
 C                    -3.44423   0.23668   1.31 
 C                    -3.67993   0.28319   0.11315 
 C                    -3.47415   0.29849  -1.21491 
 C                    -2.88721   0.27811  -2.28507 
 C                    -1.87848   0.22063  -3.17136 
 C                    -0.74353   0.1429   -3.61408 
 C                     0.59616   0.03953  -3.64389 
 C                     1.74805  -0.05918  -3.25203 
 C                     2.79184  -0.16006  -2.4114 
 C                     3.4217   -0.23356  -1.36831 
 C                     3.6812   -0.28476  -0.05059 
 C                     3.4943   -0.29866   1.15566 
 C                     2.84808  -0.27622   2.33389 
 C                     1.93187  -0.22401   3.13888 
 B                     2.99241   3.24606  -0.03922 
 B                     5.4106    2.91909   0.34679 
 B                     7.01671   1.11654   0.87103 
 B                     7.05921  -1.31816   1.28819 
 B                     5.51822  -3.24578   1.40309 
 B                     3.11478  -3.76437   1.16196 
 B                     0.9735   -2.63128   0.67762 
 B                     0.09629  -0.37669   0.17671 
 B                     0.89362   1.94446  -0.10639 
 N                     1.71417   2.96908  -0.16727 
 N                     4.27103   3.5208    0.08925 
 N                     6.54902   2.31539   0.6045 
 N                     7.48224  -0.08312   1.13739 
 N                     6.63403  -2.55244   1.43857 
 N                     4.40127  -3.93716   1.36712 
 N                     1.82871  -3.58933   0.95647 
 N                     0.12006  -1.67173   0.39877 
 N                     0.07482   0.91839  -0.04503 
 
 Add virtual bond connecting atoms B23        and C16        Dist= 6.77D+00.
 Add virtual bond connecting atoms B24        and C16        Dist= 6.59D+00.
 Add virtual bond connecting atoms B25        and C16        Dist= 6.55D+00.
 Add virtual bond connecting atoms B25        and C17        Dist= 6.49D+00.
 Add virtual bond connecting atoms B25        and C18        Dist= 6.75D+00.

 GradGradGradGradGradGradGradGradGradGradGradGradGradGradGradGradGradGrad
 Berny optimization.
 Initialization pass.
                           ----------------------------
                           !    Initial Parameters    !
                           ! (Angstroms and Degrees)  !
 --------------------------                            --------------------------
 ! Name  Definition              Value          Derivative Info.                !
 --------------------------------------------------------------------------------
 ! R1    R(1,2)                  1.2207         estimate D2E/DX2                !
 ! R2    R(1,18)                 1.344          estimate D2E/DX2                !
 ! R3    R(2,3)                  1.344          estimate D2E/DX2                !
 ! R4    R(3,4)                  1.2207         estimate D2E/DX2                !
 ! R5    R(4,5)                  1.344          estimate D2E/DX2                !
 ! R6    R(5,6)                  1.2207         estimate D2E/DX2                !
 ! R7    R(6,7)                  1.344          estimate D2E/DX2                !
 ! R8    R(7,8)                  1.2207         estimate D2E/DX2                !
 ! R9    R(8,9)                  1.344          estimate D2E/DX2                !
 ! R10   R(9,10)                 1.2207         estimate D2E/DX2                !
 ! R11   R(10,11)                1.344          estimate D2E/DX2                !
 ! R12   R(11,12)                1.2207         estimate D2E/DX2                !
 ! R13   R(12,13)                1.344          estimate D2E/DX2                !
 ! R14   R(13,14)                1.2207         estimate D2E/DX2                !
 ! R15   R(14,15)                1.344          estimate D2E/DX2                !
 ! R16   R(15,16)                1.2207         estimate D2E/DX2                !
 ! R17   R(16,17)                1.344          estimate D2E/DX2                !
 ! R18   R(16,23)                3.5837         estimate D2E/DX2                !
 ! R19   R(16,24)                3.4864         estimate D2E/DX2                !
 ! R20   R(16,25)                3.4676         estimate D2E/DX2                !
 ! R21   R(17,18)                1.2207         estimate D2E/DX2                !
 ! R22   R(17,25)                3.4356         estimate D2E/DX2                !
 ! R23   R(18,25)                3.5737         estimate D2E/DX2                !
 ! R24   R(19,28)                1.3142         estimate D2E/DX2                !
 ! R25   R(19,29)                1.3141         estimate D2E/DX2                !
 ! R26   R(20,29)                1.3142         estimate D2E/DX2                !
 ! R27   R(20,30)                1.3141         estimate D2E/DX2                !
 ! R28   R(21,30)                1.3142         estimate D2E/DX2                !
 ! R29   R(21,31)                1.3141         estimate D2E/DX2                !
 ! R30   R(22,31)                1.3142         estimate D2E/DX2                !
 ! R31   R(22,32)                1.3141         estimate D2E/DX2                !
 ! R32   R(23,32)                1.3142         estimate D2E/DX2                !
 ! R33   R(23,33)                1.3141         estimate D2E/DX2                !
 ! R34   R(24,33)                1.3142         estimate D2E/DX2                !
 ! R35   R(24,34)                1.3141         estimate D2E/DX2                !
 ! R36   R(25,34)                1.3142         estimate D2E/DX2                !
 ! R37   R(25,35)                1.3141         estimate D2E/DX2                !
 ! R38   R(26,35)                1.3142         estimate D2E/DX2                !
 ! R39   R(26,36)                1.3141         estimate D2E/DX2                !
 ! R40   R(27,28)                1.3141         estimate D2E/DX2                !
 ! R41   R(27,36)                1.3142         estimate D2E/DX2                !
 ! A1    A(2,1,18)             160.0            estimate D2E/DX2                !
 ! A2    A(1,2,3)              160.0            estimate D2E/DX2                !
 ! A3    A(2,3,4)              160.0            estimate D2E/DX2                !
 ! A4    A(3,4,5)              160.0            estimate D2E/DX2                !
 ! A5    A(4,5,6)              160.0            estimate D2E/DX2                !
 ! A6    A(5,6,7)              160.0            estimate D2E/DX2                !
 ! A7    A(6,7,8)              160.0            estimate D2E/DX2                !
 ! A8    A(7,8,9)              160.0            estimate D2E/DX2                !
 ! A9    A(8,9,10)             160.0            estimate D2E/DX2                !
 ! A10   A(9,10,11)            160.0            estimate D2E/DX2                !
 ! A11   A(10,11,12)           160.0            estimate D2E/DX2                !
 ! A12   A(11,12,13)           160.0            estimate D2E/DX2                !
 ! A13   A(12,13,14)           160.0            estimate D2E/DX2                !
 ! A14   A(13,14,15)           160.0            estimate D2E/DX2                !
 ! A15   A(14,15,16)           160.0            estimate D2E/DX2                !
 ! A16   A(15,16,17)           160.0            estimate D2E/DX2                !
 ! A17   A(15,16,23)            89.4913         estimate D2E/DX2                !
 ! A18   A(15,16,24)            91.7059         estimate D2E/DX2                !
 ! A19   A(15,16,25)            89.0108         estimate D2E/DX2                !
 ! A20   A(17,16,23)           102.9882         estimate D2E/DX2                !
 ! A21   A(17,16,24)            87.8609         estimate D2E/DX2                !
 ! A22   A(23,16,24)            40.8762         estimate D2E/DX2                !
 ! A23   A(23,16,25)            82.3497         estimate D2E/DX2                !
 ! A24   A(24,16,25)            41.6187         estimate D2E/DX2                !
 ! A25   A(16,17,18)           160.0            estimate D2E/DX2                !
 ! A26   A(1,18,17)            160.0            estimate D2E/DX2                !
 ! A27   A(1,18,25)             92.4841         estimate D2E/DX2                !
 ! A28   A(16,23,32)            92.723          estimate D2E/DX2                !
 ! A29   A(16,23,33)            87.1769         estimate D2E/DX2                !
 ! A30   A(16,24,33)            91.399          estimate D2E/DX2                !
 ! A31   A(16,24,34)            88.501          estimate D2E/DX2                !
 ! A32   A(16,25,18)            42.0095         estimate D2E/DX2                !
 ! A33   A(16,25,34)            89.3168         estimate D2E/DX2                !
 ! A34   A(16,25,35)            90.5832         estimate D2E/DX2                !
 ! A35   A(17,25,34)            92.428          estimate D2E/DX2                !
 ! A36   A(17,25,35)            87.4851         estimate D2E/DX2                !
 ! A37   A(18,25,34)            99.8124         estimate D2E/DX2                !
 ! A38   A(18,25,35)            80.1218         estimate D2E/DX2                !
 ! A39   A(19,28,27)           140.1011         estimate D2E/DX2                !
 ! A40   A(19,29,20)           140.1011         estimate D2E/DX2                !
 ! A41   A(20,30,21)           140.1011         estimate D2E/DX2                !
 ! A42   A(21,31,22)           140.1011         estimate D2E/DX2                !
 ! A43   A(22,32,23)           140.1011         estimate D2E/DX2                !
 ! A44   A(23,33,24)           140.1011         estimate D2E/DX2                !
 ! A45   A(24,34,25)           140.1011         estimate D2E/DX2                !
 ! A46   A(25,35,26)           140.1011         estimate D2E/DX2                !
 ! A47   A(26,36,27)           140.1011         estimate D2E/DX2                !
 ! A48   L(28,19,29,13,-1)     179.9292         estimate D2E/DX2                !
 ! A49   L(29,20,30,1,-1)      179.9148         estimate D2E/DX2                !
 ! A50   L(30,21,31,1,-1)      179.9111         estimate D2E/DX2                !
 ! A51   L(31,22,32,1,-1)      179.9119         estimate D2E/DX2                !
 ! A52   L(32,23,33,16,-1)     179.8999         estimate D2E/DX2                !
 ! A53   L(33,24,34,16,-1)     179.9            estimate D2E/DX2                !
 ! A54   L(34,25,35,16,-1)     179.9            estimate D2E/DX2                !
 ! A55   L(35,26,36,1,-1)      179.97           estimate D2E/DX2                !
 ! A56   L(28,27,36,11,-1)     179.9949         estimate D2E/DX2                !
 ! A57   L(28,19,29,13,-2)     180.0751         estimate D2E/DX2                !
 ! A58   L(29,20,30,1,-2)      179.9426         estimate D2E/DX2                !
 ! A59   L(30,21,31,1,-2)      179.9517         estimate D2E/DX2                !
 ! A60   L(31,22,32,1,-2)      179.9496         estimate D2E/DX2                !
 ! A61   L(32,23,33,16,-2)     179.9854         estimate D2E/DX2                !
 ! A62   L(33,24,34,16,-2)     179.985          estimate D2E/DX2                !
 ! A63   L(34,25,35,16,-2)     179.985          estimate D2E/DX2                !
 ! A64   L(35,26,36,1,-2)      179.9029         estimate D2E/DX2                !
 ! A65   L(28,27,36,11,-2)     179.8911         estimate D2E/DX2                !
 ! D1    D(18,1,2,3)             0.0            estimate D2E/DX2                !
 ! D2    D(2,1,18,17)            0.0            estimate D2E/DX2                !
 ! D3    D(2,1,18,25)          -45.1539         estimate D2E/DX2                !
 ! D4    D(1,2,3,4)              0.0            estimate D2E/DX2                !
 ! D5    D(2,3,4,5)              0.0            estimate D2E/DX2                !
 ! D6    D(3,4,5,6)              0.0            estimate D2E/DX2                !
 ! D7    D(4,5,6,7)              0.0            estimate D2E/DX2                !
 ! D8    D(5,6,7,8)              0.0            estimate D2E/DX2                !
 ! D9    D(6,7,8,9)              0.0            estimate D2E/DX2                !
 ! D10   D(7,8,9,10)             0.0            estimate D2E/DX2                !
 ! D11   D(8,9,10,11)            0.0            estimate D2E/DX2                !
 ! D12   D(9,10,11,12)           0.0            estimate D2E/DX2                !
 ! D13   D(10,11,12,13)          0.0            estimate D2E/DX2                !
 ! D14   D(11,12,13,14)          0.0            estimate D2E/DX2                !
 ! D15   D(12,13,14,15)          0.0            estimate D2E/DX2                !
 ! D16   D(13,14,15,16)          0.0            estimate D2E/DX2                !
 ! D17   D(14,15,16,17)          0.0            estimate D2E/DX2                !
 ! D18   D(14,15,16,23)        129.2536         estimate D2E/DX2                !
 ! D19   D(14,15,16,24)         88.4326         estimate D2E/DX2                !
 ! D20   D(14,15,16,25)         46.8965         estimate D2E/DX2                !
 ! D21   D(15,16,17,18)          0.0            estimate D2E/DX2                !
 ! D22   D(23,16,17,18)       -127.3775         estimate D2E/DX2                !
 ! D23   D(24,16,17,18)        -89.1106         estimate D2E/DX2                !
 ! D24   D(15,16,23,32)         83.7406         estimate D2E/DX2                !
 ! D25   D(15,16,23,33)        -96.2448         estimate D2E/DX2                !
 ! D26   D(17,16,23,32)       -112.0306         estimate D2E/DX2                !
 ! D27   D(17,16,23,33)         67.9839         estimate D2E/DX2                !
 ! D28   D(24,16,23,32)        176.9366         estimate D2E/DX2                !
 ! D29   D(24,16,23,33)         -3.0489         estimate D2E/DX2                !
 ! D30   D(25,16,23,32)        172.8109         estimate D2E/DX2                !
 ! D31   D(25,16,23,33)         -7.1745         estimate D2E/DX2                !
 ! D32   D(15,16,24,33)         90.2956         estimate D2E/DX2                !
 ! D33   D(15,16,24,34)        -89.6895         estimate D2E/DX2                !
 ! D34   D(17,16,24,33)       -109.7112         estimate D2E/DX2                !
 ! D35   D(17,16,24,34)         70.3038         estimate D2E/DX2                !
 ! D36   D(23,16,24,33)          3.0459         estimate D2E/DX2                !
 ! D37   D(23,16,24,34)       -176.9391         estimate D2E/DX2                !
 ! D38   D(25,16,24,33)        176.8829         estimate D2E/DX2                !
 ! D39   D(25,16,24,34)         -3.1021         estimate D2E/DX2                !
 ! D40   D(15,16,25,18)       -157.6748         estimate D2E/DX2                !
 ! D41   D(15,16,25,34)         96.7856         estimate D2E/DX2                !
 ! D42   D(15,16,25,35)        -83.1993         estimate D2E/DX2                !
 ! D43   D(23,16,25,18)        112.7057         estimate D2E/DX2                !
 ! D44   D(23,16,25,34)          7.1661         estimate D2E/DX2                !
 ! D45   D(23,16,25,35)       -172.8188         estimate D2E/DX2                !
 ! D46   D(24,16,25,18)        108.6407         estimate D2E/DX2                !
 ! D47   D(24,16,25,34)          3.1011         estimate D2E/DX2                !
 ! D48   D(24,16,25,35)       -176.8838         estimate D2E/DX2                !
 ! D49   D(16,17,18,1)           0.0            estimate D2E/DX2                !
 ! D50   D(1,18,25,16)         156.9527         estimate D2E/DX2                !
 ! D51   D(1,18,25,34)        -125.1756         estimate D2E/DX2                !
 ! D52   D(1,18,25,35)          54.9023         estimate D2E/DX2                !
 ! D53   D(27,28,29,20)          0.0            estimate D2E/DX2                !
 ! D54   D(19,28,36,26)          0.0            estimate D2E/DX2                !
 ! D55   D(19,29,30,21)          0.0            estimate D2E/DX2                !
 ! D56   D(20,30,31,22)          0.0            estimate D2E/DX2                !
 ! D57   D(21,31,32,23)          0.0            estimate D2E/DX2                !
 ! D58   D(16,23,32,22)         -8.2766         estimate D2E/DX2                !
 ! D59   D(16,23,33,24)          8.2773         estimate D2E/DX2                !
 ! D60   D(16,24,33,23)         -8.5021         estimate D2E/DX2                !
 ! D61   D(16,24,34,25)          8.5025         estimate D2E/DX2                !
 ! D62   D(16,25,34,24)         -8.5467         estimate D2E/DX2                !
 ! D63   D(17,25,34,24)        -30.7827         estimate D2E/DX2                !
 ! D64   D(18,25,34,24)        -49.418          estimate D2E/DX2                !
 ! D65   D(16,25,35,26)          8.5466         estimate D2E/DX2                !
 ! D66   D(17,25,35,26)         30.7849         estimate D2E/DX2                !
 ! D67   D(18,25,35,26)         49.4313         estimate D2E/DX2                !
 ! D68   D(25,35,36,27)          0.0            estimate D2E/DX2                !
 --------------------------------------------------------------------------------
 Trust Radius=3.00D-01 FncErr=1.00D-07 GrdErr=1.00D-06 EigMax=2.50D+02 EigMin=1.00D-04
 Number of steps in this run=    184 maximum allowed number of steps=    216.
 GradGradGradGradGradGradGradGradGradGradGradGradGradGradGradGradGradGrad

                          Input orientation:                          
 ---------------------------------------------------------------------
 Center     Atomic      Atomic             Coordinates (Angstroms)
 Number     Number       Type             X           Y           Z
 ---------------------------------------------------------------------
      1          6           0        0.682309   -0.138429    3.626314
      2          6           0       -0.534496   -0.044546    3.653381
      3          6           0       -1.802718    0.064131    3.221950
      4          6           0       -2.750770    0.155762    2.458428
      5          6           0       -3.444234    0.236684    1.309998
      6          6           0       -3.679927    0.283187    0.113149
      7          6           0       -3.474154    0.298489   -1.214915
      8          6           0       -2.887206    0.278106   -2.285074
      9          6           0       -1.878480    0.220628   -3.171356
     10          6           0       -0.743529    0.142896   -3.614085
     11          6           0        0.596157    0.039533   -3.643885
     12          6           0        1.748054   -0.059177   -3.252025
     13          6           0        2.791845   -0.160060   -2.411399
     14          6           0        3.421702   -0.233560   -1.368307
     15          6           0        3.681198   -0.284760   -0.050593
     16          6           0        3.494299   -0.298658    1.155657
     17          6           0        2.848077   -0.276217    2.333887
     18          6           0        1.931874   -0.224011    3.138877
     19          5           0        2.992407    3.246062   -0.039222
     20          5           0        5.410604    2.919093    0.346790
     21          5           0        7.016711    1.116541    0.871026
     22          5           0        7.059211   -1.318158    1.288191
     23          5           0        5.518220   -3.245782    1.403088
     24          5           0        3.114783   -3.764374    1.161956
     25          5           0        0.973495   -2.631280    0.677623
     26          5           0        0.096290   -0.376686    0.176714
     27          5           0        0.893620    1.944457   -0.106390
     28          7           0        1.714169    2.969080   -0.167267
     29          7           0        4.271028    3.520797    0.089254
     30          7           0        6.549017    2.315389    0.604504
     31          7           0        7.482239   -0.083122    1.137390
     32          7           0        6.634029   -2.552444    1.438570
     33          7           0        4.401274   -3.937156    1.367119
     34          7           0        1.828706   -3.589334    0.956468
     35          7           0        0.120056   -1.671728    0.398767
     36          7           0        0.074822    0.918392   -0.045031
 ---------------------------------------------------------------------
                    Distance matrix (angstroms):
                    1          2          3          4          5
     1  C    0.000000
     2  C    1.220722   0.000000
     3  C    2.525847   1.343998   0.000000
     4  C    3.638205   2.525847   1.220723   0.000000
     5  C    4.747040   3.746613   2.525848   1.343999   0.000000
     6  C    5.616868   4.747040   3.638206   2.525848   1.220722
     7  C    6.395669   5.697330   4.747040   3.746612   2.525847
     8  C    6.918052   6.395670   5.616868   4.747040   3.638206
     9  C    7.272887   6.960865   6.395670   5.697330   4.747040
    10  C    7.384818   7.272887   6.918053   6.395670   5.616868
    11  C    7.272887   7.384818   7.272887   6.960866   6.395670
    12  C    6.960865   7.272887   7.384818   7.272888   6.918052
    13  C    6.395670   6.918052   7.272887   7.384818   7.272887
    14  C    5.697330   6.395669   6.960865   7.272887   7.384818
    15  C    4.747040   5.616868   6.395670   6.918053   7.272887
    16  C    3.746613   4.747040   5.697330   6.395670   6.960866
    17  C    2.525847   3.638205   4.747040   5.616868   6.395670
    18  C    1.343998   2.525847   3.746612   4.747040   5.697330
    19  B    5.497953   6.074740   6.614616   6.983717   7.232365
    20  B    6.516172   7.420305   8.273413   8.871474   9.302218
    21  B    7.020770   8.130827   9.187858   9.942164  10.507056
    22  B    6.893726   8.054850   9.175181   9.988875  10.617927
    23  B    6.163149   7.207433   8.237713   9.003357   9.615707
    24  B    5.013728   5.775946   6.563752   7.173076   7.684470
    25  B    3.872193   4.221418   4.631004   4.980866   5.304852
    26  B    3.507125   3.549003   3.615800   3.687204   3.767740
    27  B    4.279737   4.486818   4.678003   4.802011   4.872333
    28  N    5.011248   5.360577   5.682782   5.894465   6.021414
    29  N    6.227329   6.964750   7.658506   8.138925   8.473541
    30  N    7.040655   8.064807   9.037182   9.725588  10.231510
    31  N    7.241329   8.402365   9.517221  10.320692  10.932515
    32  N    6.785032   7.910922   9.011416   9.820842  10.457875
    33  N    5.776244   6.688889   7.611847   8.312320   8.886856
    34  N    4.511213   5.042180   5.627384   6.103542   6.524361
    35  N    3.617208   3.697117   3.831531   3.977885   4.144460
    36  N    3.868421   3.869983   3.863687   3.851348   3.832048
                    6          7          8          9         10
     6  C    0.000000
     7  C    1.343997   0.000000
     8  C    2.525847   1.220723   0.000000
     9  C    3.746612   2.525847   1.343998   0.000000
    10  C    4.747040   3.638206   2.525847   1.220723   0.000000
    11  C    5.697330   4.747040   3.746612   2.525847   1.343998
    12  C    6.395670   5.616868   4.747040   3.638206   2.525847
    13  C    6.960865   6.395670   5.697330   4.747040   3.746612
    14  C    7.272887   6.918052   6.395670   5.616868   4.747040
    15  C    7.384818   7.272887   6.960865   6.395670   5.697330
    16  C    7.272887   7.384818   7.272887   6.918052   6.395670
    17  C    6.918053   7.272887   7.384818   7.272888   6.960866
    18  C    6.395670   6.960865   7.272887   7.384818   7.272887
    19  B    7.302184   7.203253   6.958625   6.533686   6.030464
    20  B    9.467859   9.393903   9.096987   8.531694   7.827462
    21  B   10.755786  10.727470  10.428399   9.811622   9.015849
    22  B   10.921270  10.946729  10.688662  10.106322   9.330045
    23  B    9.935969  10.013919   9.832167   9.362302   8.710032
    24  B    7.978147   8.097559   8.015456   7.719489   7.277630
    25  B    5.519701   5.652153   5.669843   5.575104   5.391009
    26  B    3.833965   3.891088   3.923060   3.932693   3.917323
    27  B    4.870868   4.797446   4.670978   4.477738   4.269637
    28  N    6.032324   5.928602   5.735774   5.430071   5.090005
    29  N    8.584893   8.489522   8.209312   7.703191   7.090185
    30  N   10.440430  10.384706  10.076829   9.469310   8.700428
    31  N   11.215044  11.212561  10.925618  10.309249   9.502150
    32  N   10.778462  10.832552  10.608085  10.069963   9.339301
    33  N    9.202693   9.307522   9.177630   8.793192   8.241857
    34  N    6.786210   6.924622   6.906845   6.730377   6.437071
    35  N    4.282890   4.405006   4.477553   4.507875   4.487942
    36  N    3.811385   3.787894   3.768471   3.751823   3.742892
                   11         12         13         14         15
    11  C    0.000000
    12  C    1.220723   0.000000
    13  C    2.525847   1.343998   0.000000
    14  C    3.638206   2.525847   1.220723   0.000000
    15  C    4.747040   3.746612   2.525847   1.343997   0.000000
    16  C    5.616868   4.747040   3.638206   2.525847   1.220722
    17  C    6.395670   5.697330   4.747040   3.746612   2.525848
    18  C    6.918053   6.395670   5.616868   4.747040   3.638206
    19  B    5.386784   4.774424   4.155613   3.749471   3.597397
    20  B    6.884494   5.935978   4.893536   4.103231   3.662435
    21  B    7.922618   6.792688   5.500320   4.445388   3.733454
    22  B    8.242558   7.099788   5.765290   4.633013   3.777728
    23  B    7.777656   6.785181   5.612941   4.598858   3.775645
    24  B    6.626409   5.922809   5.085689   4.354662   3.728112
    25  B    5.094218   4.760020   4.353778   3.991066   3.656242
    26  B    3.875575   3.819082   3.743164   3.669597   3.593283
    27  B    4.028783   3.826176   3.653124   3.567547   3.569749
    28  N    4.681781   4.322872   3.998629   3.822966   3.803983
    29  N    6.289691   5.508699   4.689346   4.115949   3.853534
    30  N    7.659300   6.600047   5.416628   4.491015   3.926106
    31  N    8.384137   7.221386   5.882144   4.773794   3.987465
    32  N    8.306961   7.217397   5.942066   4.855392   4.009890
    33  N    7.443328   6.588990   5.579777   4.707307   3.983518
    34  N    5.987579   5.493626   4.902049   4.382172   3.919963
    35  N    4.415668   4.310334   4.161806   4.011452   3.848030
    36  N    3.741114   3.747020   3.760980   3.778843   3.801782
                   16         17         18         19         20
    16  C    0.000000
    17  C    1.343999   0.000000
    18  C    2.525848   1.220723   0.000000
    19  B    3.774212   4.249580   4.823531   0.000000
    20  B    3.831503   4.552483   5.456777   2.470545   0.000000
    21  B    3.806730   4.632196   5.726762   4.643106   2.470545
    22  B    3.710195   4.462373   5.559837   6.255639   4.643106
    23  B    3.583715   4.100532   5.000594   7.113651   6.255639
    24  B    3.486440   3.689417   4.223940   7.113651   7.113651
    25  B    3.467577   3.435635   3.573682   6.255639   7.113651
    26  B    3.537073   3.497974   3.488135   4.643106   6.255639
    27  B    3.658942   3.834873   4.038810   2.470545   4.643106
    28  N    3.949317   4.251290   4.601501   1.314156   3.732343
    29  N    4.040886   4.634704   5.366137   1.314100   1.314156
    30  N    4.058117   4.837783   5.847188   3.732293   1.314100
    31  N    3.993802   4.790025   5.901894   5.711959   3.732293
    32  N    3.875242   4.507353   5.515697   7.004853   5.711959
    33  N    3.755794   4.092620   4.798387   7.453947   7.004853
    34  N    3.693565   3.730033   4.012350   7.004873   7.453947
    35  N    3.720715   3.624119   3.589815   5.711996   7.004873
    36  N    3.823046   3.844123   3.858884   3.732343   5.711996
                   21         22         23         24         25
    21  B    0.000000
    22  B    2.470545   0.000000
    23  B    4.643106   2.470545   0.000000
    24  B    6.255639   4.643106   2.470545   0.000000
    25  B    7.113651   6.255639   4.643106   2.470545   0.000000
    26  B    7.113651   7.113651   6.255639   4.643106   2.470545
    27  B    6.255639   7.113651   7.113651   6.255639   4.643106
    28  N    5.711996   7.004873   7.453947   7.004853   5.711959
    29  N    3.732343   5.711996   7.004873   7.453947   7.004853
    30  N    1.314156   3.732343   5.711996   7.004873   7.453947
    31  N    1.314100   1.314156   3.732343   5.711996   7.004873
    32  N    3.732293   1.314100   1.314156   3.732343   5.711996
    33  N    5.711959   3.732293   1.314100   1.314156   3.732343
    34  N    7.004853   5.711959   3.732293   1.314100   1.314156
    35  N    7.453947   7.004853   5.711959   3.732293   1.314100
    36  N    7.004873   7.453947   7.004853   5.711959   3.732293
                   26         27         28         29         30
    26  B    0.000000
    27  B    2.470545   0.000000
    28  N    3.732293   1.314100   0.000000
    29  N    5.711959   3.732293   2.628255   0.000000
    30  N    7.004853   5.711959   4.939503   2.628255   0.000000
    31  N    7.453947   7.004853   6.654975   4.939503   2.628255
    32  N    7.004873   7.453947   7.567758   6.654975   4.939503
    33  N    5.711996   7.004873   7.567758   7.567758   6.654975
    34  N    3.732343   5.711996   6.654975   7.567758   7.567758
    35  N    1.314156   3.732343   4.939503   6.654975   7.567758
    36  N    1.314100   1.314156   2.628255   4.939503   6.654975
                   31         32         33         34         35
    31  N    0.000000
    32  N    2.628255   0.000000
    33  N    4.939503   2.628255   0.000000
    34  N    6.654975   4.939503   2.628255   0.000000
    35  N    7.567758   6.654975   4.939503   2.628255   0.000000
    36  N    7.567758   7.567758   6.654975   4.939503   2.628255
                   36
    36  N    0.000000
 Stoichiometry    C18B9N9
 Framework group  C1[X(C18B9N9)]
 Deg. of freedom   102
 Full point group                 C1      NOp   1
 Largest Abelian subgroup         C1      NOp   1
 Largest concise Abelian subgroup C1      NOp   1
                         Standard orientation:                         
 ---------------------------------------------------------------------
 Center     Atomic      Atomic             Coordinates (Angstroms)
 Number     Number       Type             X           Y           Z
 ---------------------------------------------------------------------
      1          6           0       -0.608498    2.571153   -2.297458
      2          6           0       -1.808962    2.728629   -2.453178
      3          6           0       -3.134267    2.556498   -2.310810
      4          6           0       -4.196100    2.105194   -1.912066
      5          6           0       -5.067917    1.343496   -1.229363
      6          6           0       -5.494275    0.494580   -0.462731
      7          6           0       -5.504670   -0.500277    0.440862
      8          6           0       -5.096056   -1.349586    1.216666
      9          6           0       -4.240167   -2.112099    1.918348
     10          6           0       -3.187775   -2.564401    2.340317
     11          6           0       -1.866080   -2.737780    2.511763
     12          6           0       -0.662336   -2.581437    2.382453
     13          6           0        0.506727   -2.084558    1.943441
     14          6           0        1.298578   -1.392725    1.323357
     15          6           0        1.767993   -0.458082    0.479307
     16          6           0        1.777435    0.445525   -0.341406
     17          6           0        1.327556    1.380603   -1.195555
     18          6           0        0.550171    2.073175   -1.832876
     19          5           0        0.836051   -2.731536   -2.148268
     20          5           0        3.302102   -2.634513   -2.035267
     21          5           0        5.097502   -1.302638   -0.983487
     22          5           0        5.382163    0.640890    0.514932
     23          5           0        4.022888    2.286672    1.758863
     24          5           0        1.655698    2.864629    2.166258
     25          5           0       -0.611773    2.104329    1.546491
     26          5           0       -1.718550    0.361523    0.189558
     27          5           0       -1.146760   -1.548309   -1.269616
     28          7           0       -0.422793   -2.423218   -1.930877
     29          7           0        2.095503   -3.038085   -2.364289
     30          7           0        4.507729   -2.229264   -1.704970
     31          7           0        5.685176   -0.375212   -0.261422
     32          7           0        5.076906    1.656540    1.290903
     33          7           0        2.967533    2.915312    2.225655
     34          7           0        0.344057    2.812112    2.105453
     35          7           0       -1.565968    1.395227    0.986541
     36          7           0       -1.868821   -0.672366   -0.607530
 ---------------------------------------------------------------------
 Rotational constants (GHZ):           0.1657099           0.0865522           0.0791129
 Standard basis: 6-311G(d) (5D, 7F)
 There are   684 symmetry adapted cartesian basis functions of A   symmetry.
 There are   648 symmetry adapted basis functions of A   symmetry.
   648 basis functions,  1152 primitive gaussians,   684 cartesian basis functions
   108 alpha electrons      108 beta electrons
       nuclear repulsion energy      2744.3337340678 Hartrees.
 NAtoms=   36 NActive=   36 NUniq=   36 SFac= 1.00D+00 NAtFMM=   60 NAOKFM=F Big=F
 Integral buffers will be    131072 words long.
 Raffenetti 2 integral format.
 Two-electron integral symmetry is turned on.
 Nuclear repulsion after empirical dispersion term =     2744.2943209628 Hartrees.
 One-electron integrals computed using PRISM.
 NBasis=   648 RedAO= T EigKep=  2.22D-06  NBF=   648
 NBsUse=   648 1.00D-06 EigRej= -1.00D+00 NBFU=   648
 ExpMin= 9.89D-02 ExpMax= 6.29D+03 ExpMxC= 9.49D+02 IAcc=3 IRadAn=         5 AccDes= 0.00D+00
 Harris functional with IExCor= 4639 and IRadAn=       5 diagonalized for initial guess.
 HarFok:  IExCor= 4639 AccDes= 0.00D+00 IRadAn=         5 IDoV= 1 UseB2=F ITyADJ=14
 ICtDFT=  3500011 ScaDFX=  1.000000  1.000000  1.000000  1.000000
 FoFCou: FMM=F IPFlag=           0 FMFlag=      100000 FMFlg1=           0
         NFxFlg=           0 DoJE=T BraDBF=F KetDBF=T FulRan=T
         wScrn=  0.000000 ICntrl=       500 IOpCl=  0 I1Cent=   200000004 NGrid=           0
         NMat0=    1 NMatS0=      1 NMatT0=    0 NMatD0=    1 NMtDS0=    0 NMtDT0=    0
 Petite list used in FoFCou.
 Requested convergence on RMS density matrix=1.00D-08 within 128 cycles.
 Requested convergence on MAX density matrix=1.00D-06.
 Requested convergence on             energy=1.00D-06.
 No special actions if energy rises.
 Integral accuracy reduced to 1.0D-05 until final iterations.
 Problem detected with inexpensive integrals.
 Switching to full accuracy and repeating last cycle.
 SCF Done:  E(RwB97XD) =  -1402.09590063     A.U. after   15 cycles
            NFock= 15  Conv=0.97D-08     -V/T= 2.0034

 **********************************************************************

            Population analysis using the SCF Density.

 **********************************************************************

 Orbital symmetries:
       Occupied  (A) (A) (A) (A) (A) (A) (A) (A) (A) (A) (A) (A)
                 (A) (A) (A) (A) (A) (A) (A) (A) (A) (A) (A) (A)
                 (A) (A) (A) (A) (A) (A) (A) (A) (A) (A) (A) (A)
                 (A) (A) (A) (A) (A) (A) (A) (A) (A) (A) (A) (A)
                 (A) (A) (A) (A) (A) (A) (A) (A) (A) (A) (A) (A)
                 (A) (A) (A) (A) (A) (A) (A) (A) (A) (A) (A) (A)
                 (A) (A) (A) (A) (A) (A) (A) (A) (A) (A) (A) (A)
                 (A) (A) (A) (A) (A) (A) (A) (A) (A) (A) (A) (A)
                 (A) (A) (A) (A) (A) (A) (A) (A) (A) (A) (A) (A)
       Virtual   (A) (A) (A) (A) (A) (A) (A) (A) (A) (A) (A) (A)
                 (A) (A) (A) (A) (A) (A) (A) (A) (A) (A) (A) (A)
                 (A) (A) (A) (A) (A) (A) (A) (A) (A) (A) (A) (A)
                 (A) (A) (A) (A) (A) (A) (A) (A) (A) (A) (A) (A)
                 (A) (A) (A) (A) (A) (A) (A) (A) (A) (A) (A) (A)
                 (A) (A) (A) (A) (A) (A) (A) (A) (A) (A) (A) (A)
                 (A) (A) (A) (A) (A) (A) (A) (A) (A) (A) (A) (A)
                 (A) (A) (A) (A) (A) (A) (A) (A) (A) (A) (A) (A)
                 (A) (A) (A) (A) (A) (A) (A) (A) (A) (A) (A) (A)
                 (A) (A) (A) (A) (A) (A) (A) (A) (A) (A) (A) (A)
                 (A) (A) (A) (A) (A) (A) (A) (A) (A) (A) (A) (A)
                 (A) (A) (A) (A) (A) (A) (A) (A) (A) (A) (A) (A)
                 (A) (A) (A) (A) (A) (A) (A) (A) (A) (A) (A) (A)
                 (A) (A) (A) (A) (A) (A) (A) (A) (A) (A) (A) (A)
                 (A) (A) (A) (A) (A) (A) (A) (A) (A) (A) (A) (A)
                 (A) (A) (A) (A) (A) (A) (A) (A) (A) (A) (A) (A)
                 (A) (A) (A) (A) (A) (A) (A) (A) (A) (A) (A) (A)
                 (A) (A) (A) (A) (A) (A) (A) (A) (A) (A) (A) (A)
                 (A) (A) (A) (A) (A) (A) (A) (A) (A) (A) (A) (A)
                 (A) (A) (A) (A) (A) (A) (A) (A) (A) (A) (A) (A)
                 (A) (A) (A) (A) (A) (A) (A) (A) (A) (A) (A) (A)
                 (A) (A) (A) (A) (A) (A) (A) (A) (A) (A) (A) (A)
                 (A) (A) (A) (A) (A) (A) (A) (A) (A) (A) (A) (A)
                 (A) (A) (A) (A) (A) (A) (A) (A) (A) (A) (A) (A)
                 (A) (A) (A) (A) (A) (A) (A) (A) (A) (A) (A) (A)
                 (A) (A) (A) (A) (A) (A) (A) (A) (A) (A) (A) (A)
                 (A) (A) (A) (A) (A) (A) (A) (A) (A) (A) (A) (A)
                 (A) (A) (A) (A) (A) (A) (A) (A) (A) (A) (A) (A)
                 (A) (A) (A) (A) (A) (A) (A) (A) (A) (A) (A) (A)
                 (A) (A) (A) (A) (A) (A) (A) (A) (A) (A) (A) (A)
                 (A) (A) (A) (A) (A) (A) (A) (A) (A) (A) (A) (A)
                 (A) (A) (A) (A) (A) (A) (A) (A) (A) (A) (A) (A)
                 (A) (A) (A) (A) (A) (A) (A) (A) (A) (A) (A) (A)
                 (A) (A) (A) (A) (A) (A) (A) (A) (A) (A) (A) (A)
                 (A) (A) (A) (A) (A) (A) (A) (A) (A) (A) (A) (A)
                 (A) (A) (A) (A) (A) (A) (A) (A) (A) (A) (A) (A)
                 (A) (A) (A) (A) (A) (A) (A) (A) (A) (A) (A) (A)
                 (A) (A) (A) (A) (A) (A) (A) (A) (A) (A) (A) (A)
                 (A) (A) (A) (A) (A) (A) (A) (A) (A) (A) (A) (A)
                 (A) (A) (A) (A) (A) (A) (A) (A) (A) (A) (A) (A)
                 (A) (A) (A) (A) (A) (A) (A) (A) (A) (A) (A) (A)
                 (A) (A) (A) (A) (A) (A) (A) (A) (A) (A) (A) (A)
                 (A) (A) (A) (A) (A) (A) (A) (A) (A) (A) (A) (A)
                 (A) (A) (A) (A) (A) (A) (A) (A) (A) (A) (A) (A)
                 (A) (A) (A) (A) (A) (A) (A) (A) (A) (A) (A) (A)
 The electronic state is 1-A.
 Alpha  occ. eigenvalues --  -14.42542 -14.42470 -14.42465 -14.42416 -14.42400
 Alpha  occ. eigenvalues --  -14.42391 -14.42382 -14.42376 -14.42372 -10.36885
 Alpha  occ. eigenvalues --  -10.36672 -10.36583 -10.36561 -10.36234 -10.36223
 Alpha  occ. eigenvalues --  -10.36207 -10.36198 -10.35989 -10.35959 -10.35870
 Alpha  occ. eigenvalues --  -10.35863 -10.35849 -10.35820 -10.35700 -10.35676
 Alpha  occ. eigenvalues --  -10.35633 -10.35604  -6.91854  -6.91837  -6.91779
 Alpha  occ. eigenvalues --   -6.91770  -6.91730  -6.91725  -6.91710  -6.91707
 Alpha  occ. eigenvalues --   -6.91701  -0.98785  -0.97846  -0.97703  -0.97660
 Alpha  occ. eigenvalues --   -0.97541  -0.97515  -0.96931  -0.96924  -0.96044
 Alpha  occ. eigenvalues --   -0.96026  -0.95443  -0.95412  -0.95378  -0.95370
 Alpha  occ. eigenvalues --   -0.91988  -0.91937  -0.87881  -0.87572  -0.81734
 Alpha  occ. eigenvalues --   -0.81481  -0.76652  -0.76645  -0.71973  -0.71938
 Alpha  occ. eigenvalues --   -0.68617  -0.68429  -0.67143  -0.66716  -0.66625
 Alpha  occ. eigenvalues --   -0.65378  -0.65355  -0.63299  -0.63291  -0.61374
 Alpha  occ. eigenvalues --   -0.61343  -0.60545  -0.53682  -0.53607  -0.52370
 Alpha  occ. eigenvalues --   -0.52335  -0.52027  -0.51849  -0.49965  -0.49213
 Alpha  occ. eigenvalues --   -0.48931  -0.48652  -0.48567  -0.48281  -0.47711
 Alpha  occ. eigenvalues --   -0.47614  -0.47502  -0.47379  -0.45519  -0.45517
 Alpha  occ. eigenvalues --   -0.44966  -0.44927  -0.41614  -0.41574  -0.41368
 Alpha  occ. eigenvalues --   -0.41333  -0.40877  -0.40855  -0.40035  -0.40014
 Alpha  occ. eigenvalues --   -0.36847  -0.36769  -0.35064  -0.34998  -0.32711
 Alpha  occ. eigenvalues --   -0.32348  -0.32327  -0.31973
 Alpha virt. eigenvalues --   -0.07551  -0.07410  -0.07102  -0.06973   0.02458
 Alpha virt. eigenvalues --    0.02621   0.03334   0.03404   0.04926   0.04988
 Alpha virt. eigenvalues --    0.05324   0.05473   0.07225   0.09788   0.09836
 Alpha virt. eigenvalues --    0.09935   0.09990   0.10400   0.10443   0.10764
 Alpha virt. eigenvalues --    0.10923   0.11664   0.12249   0.12313   0.13742
 Alpha virt. eigenvalues --    0.13784   0.14574   0.14922   0.14998   0.16361
 Alpha virt. eigenvalues --    0.16439   0.17398   0.17454   0.17676   0.17708
 Alpha virt. eigenvalues --    0.17839   0.19671   0.19734   0.20263   0.20450
 Alpha virt. eigenvalues --    0.25088   0.25583   0.28610   0.28877   0.29025
 Alpha virt. eigenvalues --    0.30615   0.31152   0.31622   0.31937   0.32121
 Alpha virt. eigenvalues --    0.33336   0.33949   0.34477   0.34802   0.35605
 Alpha virt. eigenvalues --    0.35806   0.35887   0.36385   0.36760   0.36862
 Alpha virt. eigenvalues --    0.37046   0.37345   0.37399   0.37617   0.38379
 Alpha virt. eigenvalues --    0.38519   0.38741   0.39169   0.39217   0.40719
 Alpha virt. eigenvalues --    0.41008   0.41222   0.41511   0.42232   0.42887
 Alpha virt. eigenvalues --    0.42961   0.43625   0.43949   0.44265   0.44523
 Alpha virt. eigenvalues --    0.44791   0.44996   0.45222   0.45457   0.45572
 Alpha virt. eigenvalues --    0.46363   0.46583   0.46931   0.47160   0.47866
 Alpha virt. eigenvalues --    0.48859   0.49087   0.49471   0.50063   0.50856
 Alpha virt. eigenvalues --    0.51064   0.51514   0.52271   0.52779   0.52959
 Alpha virt. eigenvalues --    0.53253   0.53748   0.53996   0.54243   0.56039
 Alpha virt. eigenvalues --    0.56090   0.56461   0.56917   0.57517   0.57844
 Alpha virt. eigenvalues --    0.58169   0.58757   0.60084   0.60193   0.60491
 Alpha virt. eigenvalues --    0.60866   0.62010   0.62465   0.62741   0.63070
 Alpha virt. eigenvalues --    0.63199   0.63959   0.64397   0.64907   0.65300
 Alpha virt. eigenvalues --    0.66147   0.67933   0.69190   0.69657   0.72732
 Alpha virt. eigenvalues --    0.73211   0.73799   0.75162   0.75329   0.75557
 Alpha virt. eigenvalues --    0.75989   0.76200   0.78511   0.78731   0.79294
 Alpha virt. eigenvalues --    0.80883   0.81342   0.81580   0.81814   0.82984
 Alpha virt. eigenvalues --    0.83030   0.83365   0.83791   0.84412   0.84690
 Alpha virt. eigenvalues --    0.85243   0.85424   0.85567   0.85707   0.85939
 Alpha virt. eigenvalues --    0.86313   0.86801   0.86913   0.87857   0.88346
 Alpha virt. eigenvalues --    0.88620   0.89087   0.89439   0.89555   0.89958
 Alpha virt. eigenvalues --    0.90002   0.90644   0.91315   0.91555   0.91704
 Alpha virt. eigenvalues --    0.92228   0.92559   0.93553   0.94167   0.94381
 Alpha virt. eigenvalues --    0.94641   0.95115   0.95263   0.95306   0.95508
 Alpha virt. eigenvalues --    0.96252   0.96607   0.96804   0.97183   0.97293
 Alpha virt. eigenvalues --    0.97436   0.98528   1.00029   1.00359   1.00635
 Alpha virt. eigenvalues --    1.00962   1.01598   1.02386   1.02498   1.03561
 Alpha virt. eigenvalues --    1.04178   1.05719   1.06243   1.07135   1.07274
 Alpha virt. eigenvalues --    1.07457   1.07592   1.07883   1.08068   1.09331
 Alpha virt. eigenvalues --    1.10146   1.10593   1.11841   1.12355   1.12580
 Alpha virt. eigenvalues --    1.13443   1.14067   1.14402   1.14722   1.15819
 Alpha virt. eigenvalues --    1.16608   1.16780   1.16917   1.17028   1.17108
 Alpha virt. eigenvalues --    1.17307   1.17369   1.17603   1.17856   1.18252
 Alpha virt. eigenvalues --    1.18395   1.19249   1.19502   1.19663   1.19960
 Alpha virt. eigenvalues --    1.20365   1.20853   1.21421   1.21966   1.22104
 Alpha virt. eigenvalues --    1.23157   1.23521   1.23918   1.26106   1.26358
 Alpha virt. eigenvalues --    1.26580   1.27173   1.27697   1.28383   1.28878
 Alpha virt. eigenvalues --    1.29205   1.29315   1.30235   1.30458   1.31303
 Alpha virt. eigenvalues --    1.31373   1.31560   1.31565   1.31858   1.32012
 Alpha virt. eigenvalues --    1.32138   1.32685   1.36314   1.37212   1.37400
 Alpha virt. eigenvalues --    1.38036   1.38349   1.38722   1.39133   1.39612
 Alpha virt. eigenvalues --    1.41567   1.41692   1.42892   1.43289   1.43542
 Alpha virt. eigenvalues --    1.46405   1.46437   1.46651   1.46811   1.49038
 Alpha virt. eigenvalues --    1.50765   1.51401   1.51690   1.54668   1.54777
 Alpha virt. eigenvalues --    1.56114   1.56972   1.57813   1.60208   1.60216
 Alpha virt. eigenvalues --    1.66098   1.66116   1.68992   1.69229   1.76148
 Alpha virt. eigenvalues --    1.76192   1.76776   1.76887   1.78278   1.78336
 Alpha virt. eigenvalues --    1.82837   1.83120   1.83212   1.84555   1.85119
 Alpha virt. eigenvalues --    1.85205   1.85990   1.86159   1.87590   1.87932
 Alpha virt. eigenvalues --    1.88002   1.88295   1.89409   1.89654   1.90540
 Alpha virt. eigenvalues --    1.90766   1.93021   1.94071   1.94873   1.96128
 Alpha virt. eigenvalues --    1.96197   1.96333   1.96502   1.96621   1.98184
 Alpha virt. eigenvalues --    1.98315   2.00137   2.00198   2.00787   2.01286
 Alpha virt. eigenvalues --    2.04871   2.06155   2.10928   2.11932   2.12102
 Alpha virt. eigenvalues --    2.12178   2.12368   2.13464   2.14124   2.14682
 Alpha virt. eigenvalues --    2.15530   2.15906   2.19711   2.19833   2.19954
 Alpha virt. eigenvalues --    2.20199   2.20436   2.20848   2.21112   2.23099
 Alpha virt. eigenvalues --    2.23401   2.25039   2.25149   2.26319   2.26486
 Alpha virt. eigenvalues --    2.26714   2.26913   2.27490   2.28104   2.28230
 Alpha virt. eigenvalues --    2.28740   2.29019   2.29359   2.30274   2.30577
 Alpha virt. eigenvalues --    2.32878   2.34047   2.34190   2.36689   2.43673
 Alpha virt. eigenvalues --    2.43802   2.44142   2.44517   2.45051   2.45673
 Alpha virt. eigenvalues --    2.50207   2.50368   2.51921   2.52338   2.53122
 Alpha virt. eigenvalues --    2.54513   2.55031   2.57479   2.57617   2.59581
 Alpha virt. eigenvalues --    2.60361   2.60592   2.60964   2.61180   2.61744
 Alpha virt. eigenvalues --    2.62515   2.62582   2.63728   2.64963   2.66972
 Alpha virt. eigenvalues --    2.67437   2.70482   2.70587   2.72022   2.72480
 Alpha virt. eigenvalues --    2.74135   2.74948   2.75598   2.78371   2.84900
 Alpha virt. eigenvalues --    2.85158   2.85468   2.85760   2.86618   2.87061
 Alpha virt. eigenvalues --    2.88024   2.89592   2.89814   2.90525   2.91397
 Alpha virt. eigenvalues --    2.93236   2.94414   2.94503   2.94568   2.94952
 Alpha virt. eigenvalues --    2.95621   2.96265   2.96944   2.97159   2.97307
 Alpha virt. eigenvalues --    2.98377   2.98787   2.99470   2.99627   2.99954
 Alpha virt. eigenvalues --    3.00299   3.01206   3.02977   3.03135   3.03256
 Alpha virt. eigenvalues --    3.03374   3.03725   3.04581   3.05273   3.05335
 Alpha virt. eigenvalues --    3.07145   3.08939   3.09077   3.09467   3.09681
 Alpha virt. eigenvalues --    3.10385   3.11966   3.13043   3.14394   3.15314
 Alpha virt. eigenvalues --    3.16786   3.16953   3.17181   3.17591   3.18365
 Alpha virt. eigenvalues --    3.23890   3.24268   3.24704   3.25668   3.30577
 Alpha virt. eigenvalues --    3.30711   3.31139   3.31350   3.33009   3.33195
 Alpha virt. eigenvalues --    3.33751   3.40657   3.40876   3.42463   3.42887
 Alpha virt. eigenvalues --    3.43236   3.46568   3.46810   3.60553   3.60829
 Alpha virt. eigenvalues --    3.72487   3.72844   3.95262   3.97046   3.99016
 Alpha virt. eigenvalues --    4.00212   4.03141   4.04405   4.05107   4.06162
 Alpha virt. eigenvalues --    4.07026   4.07278   4.09281   4.10094   4.11627
 Alpha virt. eigenvalues --    4.13209   4.16347   4.18137   4.23027   4.23558
 Alpha virt. eigenvalues --    4.31430   4.32086   4.71146   4.72481   4.82322
 Alpha virt. eigenvalues --    4.83779   4.83954   4.87823   4.88027   4.98419
 Alpha virt. eigenvalues --    4.98485   5.10275   5.14449   5.14994  15.09946
 Alpha virt. eigenvalues --   15.14880  15.18169  15.24454  15.26804  15.44311
 Alpha virt. eigenvalues --   15.45550  15.60780  15.62274  23.14731  23.33734
 Alpha virt. eigenvalues --   23.37571  23.63278  23.63732  23.87707  23.87718
 Alpha virt. eigenvalues --   24.02639  24.03045  24.54899  24.55249  24.80430
 Alpha virt. eigenvalues --   24.80436  25.19787  25.19801  25.59293  25.59385
 Alpha virt. eigenvalues --   25.76758  35.54047  35.54754  35.67067  35.67486
 Alpha virt. eigenvalues --   35.80459  35.80623  35.88931  35.88968  35.91512
          Condensed to atoms (all electrons):
               1          2          3          4          5          6
     1  C    5.017788   0.878100  -0.178386  -0.047964  -0.001903  -0.000005
     2  C    0.878100   4.992135   0.535157  -0.174666  -0.016839  -0.001951
     3  C   -0.178386   0.535157   5.011004   0.879332  -0.177814  -0.048208
     4  C   -0.047964  -0.174666   0.879332   4.995520   0.535084  -0.176171
     5  C   -0.001903  -0.016839  -0.177814   0.535084   5.007513   0.878856
     6  C   -0.000005  -0.001951  -0.048208  -0.176171   0.878856   5.001360
     7  C   -0.000003  -0.000010  -0.001928  -0.016907  -0.177334   0.535005
     8  C   -0.000002  -0.000003  -0.000005  -0.001944  -0.048269  -0.177114
     9  C    0.000000  -0.000000  -0.000003  -0.000010  -0.001943  -0.016939
    10  C    0.000000   0.000000  -0.000002  -0.000003  -0.000005  -0.001935
    11  C    0.000000   0.000000   0.000000  -0.000000  -0.000003  -0.000010
    12  C   -0.000000   0.000000   0.000000   0.000000  -0.000002  -0.000003
    13  C   -0.000006  -0.000002   0.000000   0.000000   0.000000  -0.000000
    14  C   -0.000031  -0.000006  -0.000000   0.000000   0.000000   0.000000
    15  C   -0.001987  -0.000010  -0.000004  -0.000001   0.000000   0.000000
    16  C   -0.017334  -0.001959  -0.000008  -0.000003  -0.000000   0.000000
    17  C   -0.179290  -0.047953  -0.001832   0.000004  -0.000004  -0.000002
    18  C    0.538561  -0.174168  -0.016678  -0.001950  -0.000010  -0.000003
    19  B   -0.000030  -0.000019  -0.000003  -0.000001  -0.000000  -0.000000
    20  B   -0.000002  -0.000000  -0.000000  -0.000000  -0.000000  -0.000000
    21  B   -0.000000  -0.000000  -0.000000  -0.000000   0.000000  -0.000000
    22  B   -0.000001  -0.000000  -0.000000  -0.000000   0.000000  -0.000000
    23  B   -0.000014  -0.000001  -0.000000  -0.000000   0.000000   0.000000
    24  B   -0.000051  -0.000030  -0.000002   0.000000   0.000000   0.000000
    25  B   -0.001230  -0.000432   0.000045   0.000163   0.000078   0.000044
    26  B    0.000176  -0.000728  -0.001257  -0.001426  -0.001029  -0.000906
    27  B   -0.000037  -0.000048  -0.000012  -0.000043  -0.000068  -0.000066
    28  N   -0.000005  -0.000006  -0.000002  -0.000001  -0.000000  -0.000000
    29  N   -0.000000  -0.000000  -0.000000  -0.000000  -0.000000  -0.000000
    30  N   -0.000000  -0.000000  -0.000000  -0.000000  -0.000000   0.000000
    31  N   -0.000000  -0.000000  -0.000000  -0.000000  -0.000000   0.000000
    32  N   -0.000000  -0.000000  -0.000000  -0.000000  -0.000000  -0.000000
    33  N   -0.000003  -0.000000  -0.000000  -0.000000  -0.000000   0.000000
    34  N   -0.000048  -0.000009  -0.000002  -0.000000   0.000000   0.000000
    35  N   -0.000631  -0.000392  -0.000027   0.000071   0.000067   0.000047
    36  N   -0.000282  -0.000176  -0.000154  -0.000083  -0.000069  -0.000006
               7          8          9         10         11         12
     1  C   -0.000003  -0.000002   0.000000   0.000000   0.000000  -0.000000
     2  C   -0.000010  -0.000003  -0.000000   0.000000   0.000000   0.000000
     3  C   -0.001928  -0.000005  -0.000003  -0.000002   0.000000   0.000000
     4  C   -0.016907  -0.001944  -0.000010  -0.000003  -0.000000   0.000000
     5  C   -0.177334  -0.048269  -0.001943  -0.000005  -0.000003  -0.000002
     6  C    0.535005  -0.177114  -0.016939  -0.001935  -0.000010  -0.000003
     7  C    5.001954   0.878887  -0.176328  -0.048325  -0.001954  -0.000005
     8  C    0.878887   5.005932   0.535102  -0.178076  -0.016913  -0.001913
     9  C   -0.176328   0.535102   4.995861   0.878792  -0.175196  -0.048070
    10  C   -0.048325  -0.178076   0.878792   5.011843   0.534964  -0.178938
    11  C   -0.001954  -0.016913  -0.175196   0.534964   4.994082   0.877799
    12  C   -0.000005  -0.001913  -0.048070  -0.178938   0.877799   5.019620
    13  C   -0.000003  -0.000010  -0.001950  -0.016757  -0.174878   0.538347
    14  C   -0.000002  -0.000004   0.000003  -0.001844  -0.048236  -0.180334
    15  C    0.000000  -0.000000  -0.000003  -0.000008  -0.001992  -0.017587
    16  C    0.000000   0.000000  -0.000001  -0.000004  -0.000013  -0.002027
    17  C    0.000000   0.000000   0.000000  -0.000000  -0.000006  -0.000029
    18  C   -0.000000   0.000000   0.000000   0.000000  -0.000002  -0.000006
    19  B   -0.000000  -0.000001  -0.000011  -0.000031  -0.000050   0.000110
    20  B   -0.000000  -0.000000  -0.000000  -0.000000  -0.000001  -0.000008
    21  B   -0.000000  -0.000000  -0.000000  -0.000000  -0.000000  -0.000002
    22  B   -0.000000   0.000000  -0.000000  -0.000000  -0.000000  -0.000000
    23  B    0.000000   0.000000   0.000000   0.000000   0.000000   0.000000
    24  B    0.000000   0.000000   0.000000   0.000000  -0.000002  -0.000010
    25  B    0.000012   0.000018   0.000025   0.000050   0.000115   0.000210
    26  B   -0.000745  -0.000608  -0.000423  -0.000314  -0.000528  -0.000748
    27  B   -0.000020  -0.000074  -0.000277  -0.000388  -0.000482  -0.000917
    28  N   -0.000001  -0.000002  -0.000010  -0.000023  -0.000012   0.000034
    29  N   -0.000000  -0.000000  -0.000000  -0.000000  -0.000001  -0.000005
    30  N    0.000000  -0.000000  -0.000000  -0.000000  -0.000000  -0.000000
    31  N    0.000000  -0.000000  -0.000000  -0.000000  -0.000000  -0.000000
    32  N    0.000000  -0.000000  -0.000000  -0.000000  -0.000000   0.000000
    33  N    0.000000  -0.000000  -0.000000  -0.000000  -0.000000  -0.000000
    34  N    0.000000   0.000000   0.000000   0.000000  -0.000000  -0.000001
    35  N    0.000014   0.000001  -0.000005  -0.000002   0.000016   0.000017
    36  N    0.000013   0.000067   0.000115   0.000054   0.000006  -0.000241
              13         14         15         16         17         18
     1  C   -0.000006  -0.000031  -0.001987  -0.017334  -0.179290   0.538561
     2  C   -0.000002  -0.000006  -0.000010  -0.001959  -0.047953  -0.174168
     3  C    0.000000  -0.000000  -0.000004  -0.000008  -0.001832  -0.016678
     4  C    0.000000   0.000000  -0.000001  -0.000003   0.000004  -0.001950
     5  C    0.000000   0.000000   0.000000  -0.000000  -0.000004  -0.000010
     6  C   -0.000000   0.000000   0.000000   0.000000  -0.000002  -0.000003
     7  C   -0.000003  -0.000002   0.000000   0.000000   0.000000  -0.000000
     8  C   -0.000010  -0.000004  -0.000000   0.000000   0.000000   0.000000
     9  C   -0.001950   0.000003  -0.000003  -0.000001   0.000000   0.000000
    10  C   -0.016757  -0.001844  -0.000008  -0.000004  -0.000000   0.000000
    11  C   -0.174878  -0.048236  -0.001992  -0.000013  -0.000006  -0.000002
    12  C    0.538347  -0.180334  -0.017587  -0.002027  -0.000029  -0.000006
    13  C    4.998691   0.872133  -0.185313  -0.048128  -0.002005  -0.000039
    14  C    0.872133   5.031936   0.540786  -0.187309  -0.017667  -0.002041
    15  C   -0.185313   0.540786   5.079569   0.875927  -0.185281  -0.048110
    16  C   -0.048128  -0.187309   0.875927   5.103221   0.537551  -0.188554
    17  C   -0.002005  -0.017667  -0.185281   0.537551   5.031877   0.872088
    18  C   -0.000039  -0.002041  -0.048110  -0.188554   0.872088   5.002816
    19  B   -0.000063  -0.000664  -0.000864  -0.000602   0.000317   0.000155
    20  B   -0.000023  -0.000290   0.000774  -0.000479  -0.000093  -0.000014
    21  B   -0.000016   0.000126   0.000698  -0.000146   0.000207   0.000012
    22  B   -0.000000   0.000183  -0.000192   0.000752   0.000205  -0.000021
    23  B    0.000017   0.000033  -0.000474   0.000851  -0.000613  -0.000181
    24  B    0.000025   0.000049  -0.001269  -0.000355  -0.000746   0.000179
    25  B    0.000343  -0.000372  -0.000545  -0.001533  -0.001019  -0.002069
    26  B   -0.000828  -0.000951  -0.001201  -0.000861  -0.001203   0.000326
    27  B   -0.000668  -0.000643  -0.000764  -0.000559  -0.000781  -0.000273
    28  N    0.000013  -0.000565  -0.000609  -0.000275   0.000068   0.000034
    29  N   -0.000134  -0.000073   0.000019  -0.000315  -0.000067  -0.000010
    30  N   -0.000001  -0.000059  -0.000050  -0.000448  -0.000029  -0.000002
    31  N   -0.000007  -0.000055  -0.000435  -0.000207   0.000028  -0.000003
    32  N    0.000000   0.000027  -0.000274  -0.000261  -0.000206  -0.000017
    33  N   -0.000008  -0.000087  -0.000703   0.000093  -0.000078  -0.000062
    34  N    0.000010   0.000038  -0.000282  -0.000719  -0.000490  -0.000297
    35  N    0.000104  -0.000073  -0.000335  -0.000812  -0.001641  -0.001349
    36  N   -0.000622  -0.000621  -0.000483  -0.000391  -0.000397  -0.000268
              19         20         21         22         23         24
     1  C   -0.000030  -0.000002  -0.000000  -0.000001  -0.000014  -0.000051
     2  C   -0.000019  -0.000000  -0.000000  -0.000000  -0.000001  -0.000030
     3  C   -0.000003  -0.000000  -0.000000  -0.000000  -0.000000  -0.000002
     4  C   -0.000001  -0.000000  -0.000000  -0.000000  -0.000000   0.000000
     5  C   -0.000000  -0.000000   0.000000   0.000000   0.000000   0.000000
     6  C   -0.000000  -0.000000  -0.000000  -0.000000   0.000000   0.000000
     7  C   -0.000000  -0.000000  -0.000000  -0.000000   0.000000   0.000000
     8  C   -0.000001  -0.000000  -0.000000   0.000000   0.000000   0.000000
     9  C   -0.000011  -0.000000  -0.000000  -0.000000   0.000000   0.000000
    10  C   -0.000031  -0.000000  -0.000000  -0.000000   0.000000   0.000000
    11  C   -0.000050  -0.000001  -0.000000  -0.000000   0.000000  -0.000002
    12  C    0.000110  -0.000008  -0.000002  -0.000000   0.000000  -0.000010
    13  C   -0.000063  -0.000023  -0.000016  -0.000000   0.000017   0.000025
    14  C   -0.000664  -0.000290   0.000126   0.000183   0.000033   0.000049
    15  C   -0.000864   0.000774   0.000698  -0.000192  -0.000474  -0.001269
    16  C   -0.000602  -0.000479  -0.000146   0.000752   0.000851  -0.000355
    17  C    0.000317  -0.000093   0.000207   0.000205  -0.000613  -0.000746
    18  C    0.000155  -0.000014   0.000012  -0.000021  -0.000181   0.000179
    19  B    3.549102  -0.077509  -0.001974   0.000074  -0.000001  -0.000001
    20  B   -0.077509   3.542548  -0.077207  -0.001936   0.000074  -0.000001
    21  B   -0.001974  -0.077207   3.541162  -0.077258  -0.001944   0.000077
    22  B    0.000074  -0.001936  -0.077258   3.541597  -0.077579  -0.001981
    23  B   -0.000001   0.000074  -0.001944  -0.077579   3.543552  -0.077910
    24  B   -0.000001  -0.000001   0.000077  -0.001981  -0.077910   3.549458
    25  B    0.000087  -0.000000  -0.000001   0.000079  -0.002081  -0.079295
    26  B   -0.002291   0.000083  -0.000001  -0.000001   0.000094  -0.002280
    27  B   -0.079643  -0.002093   0.000075  -0.000001  -0.000000   0.000087
    28  N    0.640278  -0.003419   0.000048  -0.000001   0.000000  -0.000001
    29  N    0.641910   0.640718  -0.003449   0.000047  -0.000001   0.000000
    30  N   -0.003482   0.641768   0.641100  -0.003469   0.000047  -0.000001
    31  N    0.000047  -0.003486   0.641543   0.641313  -0.003476   0.000047
    32  N   -0.000001   0.000047  -0.003483   0.641289   0.641583  -0.003486
    33  N    0.000000  -0.000001   0.000048  -0.003470   0.640999   0.641672
    34  N   -0.000001   0.000000  -0.000001   0.000049  -0.003404   0.640280
    35  N    0.000054  -0.000001   0.000000  -0.000001   0.000049  -0.003328
    36  N   -0.003447   0.000050  -0.000001   0.000000  -0.000001   0.000054
              25         26         27         28         29         30
     1  C   -0.001230   0.000176  -0.000037  -0.000005  -0.000000  -0.000000
     2  C   -0.000432  -0.000728  -0.000048  -0.000006  -0.000000  -0.000000
     3  C    0.000045  -0.001257  -0.000012  -0.000002  -0.000000  -0.000000
     4  C    0.000163  -0.001426  -0.000043  -0.000001  -0.000000  -0.000000
     5  C    0.000078  -0.001029  -0.000068  -0.000000  -0.000000  -0.000000
     6  C    0.000044  -0.000906  -0.000066  -0.000000  -0.000000   0.000000
     7  C    0.000012  -0.000745  -0.000020  -0.000001  -0.000000   0.000000
     8  C    0.000018  -0.000608  -0.000074  -0.000002  -0.000000  -0.000000
     9  C    0.000025  -0.000423  -0.000277  -0.000010  -0.000000  -0.000000
    10  C    0.000050  -0.000314  -0.000388  -0.000023  -0.000000  -0.000000
    11  C    0.000115  -0.000528  -0.000482  -0.000012  -0.000001  -0.000000
    12  C    0.000210  -0.000748  -0.000917   0.000034  -0.000005  -0.000000
    13  C    0.000343  -0.000828  -0.000668   0.000013  -0.000134  -0.000001
    14  C   -0.000372  -0.000951  -0.000643  -0.000565  -0.000073  -0.000059
    15  C   -0.000545  -0.001201  -0.000764  -0.000609   0.000019  -0.000050
    16  C   -0.001533  -0.000861  -0.000559  -0.000275  -0.000315  -0.000448
    17  C   -0.001019  -0.001203  -0.000781   0.000068  -0.000067  -0.000029
    18  C   -0.002069   0.000326  -0.000273   0.000034  -0.000010  -0.000002
    19  B    0.000087  -0.002291  -0.079643   0.640278   0.641910  -0.003482
    20  B   -0.000000   0.000083  -0.002093  -0.003419   0.640718   0.641768
    21  B   -0.000001  -0.000001   0.000075   0.000048  -0.003449   0.641100
    22  B    0.000079  -0.000001  -0.000001  -0.000001   0.000047  -0.003469
    23  B   -0.002081   0.000094  -0.000000   0.000000  -0.000001   0.000047
    24  B   -0.079295  -0.002280   0.000087  -0.000001   0.000000  -0.000001
    25  B    3.569086  -0.086851  -0.002226   0.000048  -0.000001   0.000000
    26  B   -0.086851   3.632558  -0.096067  -0.003415   0.000050  -0.000001
    27  B   -0.002226  -0.096067   3.578057   0.642515  -0.003545   0.000047
    28  N    0.000048  -0.003415   0.642515   6.112908  -0.027199   0.000035
    29  N   -0.000001   0.000050  -0.003545  -0.027199   6.118042  -0.027135
    30  N    0.000000  -0.000001   0.000047   0.000035  -0.027135   6.119565
    31  N   -0.000001   0.000000  -0.000001  -0.000000   0.000035  -0.027106
    32  N    0.000048  -0.000001   0.000000   0.000000  -0.000000   0.000035
    33  N   -0.003501   0.000055  -0.000001  -0.000000  -0.000000  -0.000000
    34  N    0.643019  -0.003884   0.000045  -0.000000  -0.000000  -0.000000
    35  N    0.639846   0.640565  -0.003517   0.000038  -0.000000  -0.000000
    36  N   -0.003155   0.628712   0.641897  -0.027820   0.000038  -0.000000
              31         32         33         34         35         36
     1  C   -0.000000  -0.000000  -0.000003  -0.000048  -0.000631  -0.000282
     2  C   -0.000000  -0.000000  -0.000000  -0.000009  -0.000392  -0.000176
     3  C   -0.000000  -0.000000  -0.000000  -0.000002  -0.000027  -0.000154
     4  C   -0.000000  -0.000000  -0.000000  -0.000000   0.000071  -0.000083
     5  C   -0.000000  -0.000000  -0.000000   0.000000   0.000067  -0.000069
     6  C    0.000000  -0.000000   0.000000   0.000000   0.000047  -0.000006
     7  C    0.000000   0.000000   0.000000   0.000000   0.000014   0.000013
     8  C   -0.000000  -0.000000  -0.000000   0.000000   0.000001   0.000067
     9  C   -0.000000  -0.000000  -0.000000   0.000000  -0.000005   0.000115
    10  C   -0.000000  -0.000000  -0.000000   0.000000  -0.000002   0.000054
    11  C   -0.000000  -0.000000  -0.000000  -0.000000   0.000016   0.000006
    12  C   -0.000000   0.000000  -0.000000  -0.000001   0.000017  -0.000241
    13  C   -0.000007   0.000000  -0.000008   0.000010   0.000104  -0.000622
    14  C   -0.000055   0.000027  -0.000087   0.000038  -0.000073  -0.000621
    15  C   -0.000435  -0.000274  -0.000703  -0.000282  -0.000335  -0.000483
    16  C   -0.000207  -0.000261   0.000093  -0.000719  -0.000812  -0.000391
    17  C    0.000028  -0.000206  -0.000078  -0.000490  -0.001641  -0.000397
    18  C   -0.000003  -0.000017  -0.000062  -0.000297  -0.001349  -0.000268
    19  B    0.000047  -0.000001   0.000000  -0.000001   0.000054  -0.003447
    20  B   -0.003486   0.000047  -0.000001   0.000000  -0.000001   0.000050
    21  B    0.641543  -0.003483   0.000048  -0.000001   0.000000  -0.000001
    22  B    0.641313   0.641289  -0.003470   0.000049  -0.000001   0.000000
    23  B   -0.003476   0.641583   0.640999  -0.003404   0.000049  -0.000001
    24  B    0.000047  -0.003486   0.641672   0.640280  -0.003328   0.000054
    25  B   -0.000001   0.000048  -0.003501   0.643019   0.639846  -0.003155
    26  B    0.000000  -0.000001   0.000055  -0.003884   0.640565   0.628712
    27  B   -0.000001   0.000000  -0.000001   0.000045  -0.003517   0.641897
    28  N   -0.000000   0.000000  -0.000000  -0.000000   0.000038  -0.027820
    29  N    0.000035  -0.000000  -0.000000  -0.000000  -0.000000   0.000038
    30  N   -0.027106   0.000035  -0.000000  -0.000000  -0.000000  -0.000000
    31  N    6.120049  -0.027100   0.000035  -0.000000  -0.000000  -0.000000
    32  N   -0.027100   6.119556  -0.027130   0.000036  -0.000000  -0.000000
    33  N    0.000035  -0.027130   6.118132  -0.027153   0.000037  -0.000000
    34  N   -0.000000   0.000036  -0.027153   6.113423  -0.027206   0.000036
    35  N   -0.000000  -0.000000   0.000037  -0.027206   6.104847  -0.029652
    36  N   -0.000000  -0.000000  -0.000000   0.000036  -0.029652   6.110090
 Mulliken charges:
               1
     1  C   -0.005381
     2  C    0.014013
     3  C    0.000786
     4  C    0.010998
     5  C    0.003691
     6  C    0.008004
     7  C    0.007679
     8  C    0.004929
     9  C    0.011272
    10  C    0.000949
    11  C    0.013294
    12  C   -0.005293
    13  C    0.021776
    14  C   -0.003389
    15  C   -0.048996
    16  C   -0.065092
    17  C   -0.000913
    18  C    0.021953
    19  B    0.338554
    20  B    0.340501
    21  B    0.340386
    22  B    0.340322
    23  B    0.340381
    24  B    0.338820
    25  B    0.330991
    26  B    0.305926
    27  B    0.330491
    28  N   -0.332656
    29  N   -0.338926
    30  N   -0.340816
    31  N   -0.341218
    32  N   -0.340662
    33  N   -0.338872
    34  N   -0.333437
    35  N   -0.316803
    36  N   -0.313264
 Sum of Mulliken charges =  -0.00000
 Mulliken charges with hydrogens summed into heavy atoms:
               1
     1  C   -0.005381
     2  C    0.014013
     3  C    0.000786
     4  C    0.010998
     5  C    0.003691
     6  C    0.008004
     7  C    0.007679
     8  C    0.004929
     9  C    0.011272
    10  C    0.000949
    11  C    0.013294
    12  C   -0.005293
    13  C    0.021776
    14  C   -0.003389
    15  C   -0.048996
    16  C   -0.065092
    17  C   -0.000913
    18  C    0.021953
    19  B    0.338554
    20  B    0.340501
    21  B    0.340386
    22  B    0.340322
    23  B    0.340381
    24  B    0.338820
    25  B    0.330991
    26  B    0.305926
    27  B    0.330491
    28  N   -0.332656
    29  N   -0.338926
    30  N   -0.340816
    31  N   -0.341218
    32  N   -0.340662
    33  N   -0.338872
    34  N   -0.333437
    35  N   -0.316803
    36  N   -0.313264
 Electronic spatial extent (au):  <R**2>=          13815.9507
 Charge=             -0.0000 electrons
 Dipole moment (field-independent basis, Debye):
    X=             -1.8986    Y=             -0.0368    Z=             -0.0139  Tot=              1.8990
 Quadrupole moment (field-independent basis, Debye-Ang):
   XX=           -201.9953   YY=           -200.2019   ZZ=           -196.6630
   XY=              0.1647   XZ=             -0.0508   YZ=            -10.6286
 Traceless Quadrupole moment (field-independent basis, Debye-Ang):
   XX=             -2.3752   YY=             -0.5818   ZZ=              2.9571
   XY=              0.1647   XZ=             -0.0508   YZ=            -10.6286
 Octapole moment (field-independent basis, Debye-Ang**2):
  XXX=           -112.3801  YYY=             -0.2437  ZZZ=              0.1316  XYY=            -18.7597
  XXY=             -0.1962  XXZ=             -0.6499  XZZ=             -9.1825  YZZ=              0.2427
  YYZ=              0.0431  XYZ=             -7.5922
 Hexadecapole moment (field-independent basis, Debye-Ang**3):
 XXXX=         -12676.4500 YYYY=          -5026.7879 ZZZZ=          -3546.5000 XXXY=              4.5304
 XXXZ=             -0.0000 YYYX=              0.5606 YYYZ=            -75.0439 ZZZX=              0.3447
 ZZZY=            -31.0878 XXYY=          -2938.2549 XXZZ=          -2668.3643 YYZZ=          -1454.8478
 XXYZ=            -90.4381 YYXZ=              0.4025 ZZXY=             -0.3275
 N-N= 2.744294320963D+03 E-N=-8.749478658115D+03  KE= 1.397365843100D+03
 Calling FoFJK, ICntrl=      2127 FMM=F ISym2X=0 I1Cent= 0 IOpClX= 0 NMat=1 NMatS=1 NMatT=0.
 ***** Axes restored to original set *****
 -------------------------------------------------------------------
 Center     Atomic                   Forces (Hartrees/Bohr)
 Number     Number              X              Y              Z
 -------------------------------------------------------------------
      1        6           0.002447265   -0.000220362    0.001836036
      2        6          -0.001836152    0.000164014   -0.000817979
      3        6           0.000779783   -0.000178862    0.002181654
      4        6          -0.000856107    0.000117264   -0.001344645
      5        6          -0.000350367   -0.000067757    0.001754312
      6        6          -0.000269215    0.000094994   -0.001504714
      7        6          -0.000863307    0.000057345    0.001201029
      8        6           0.000285889    0.000026453   -0.001666170
      9        6          -0.001197029    0.000150493    0.000968385
     10        6           0.001263841   -0.000082067   -0.001741631
     11        6          -0.002014133    0.000282583    0.000442963
     12        6           0.002665584   -0.000110024   -0.000855114
     13        6          -0.002347885    0.000321082   -0.001579678
     14        6           0.003204976   -0.000441282    0.001467714
     15        6           0.001520385   -0.000258152   -0.005100373
     16        6           0.000187760    0.000625085    0.005385564
     17        6           0.003820361    0.000221464   -0.000197443
     18        6          -0.002587642    0.000311513    0.001384556
     19        5           0.000759775   -0.001351410    0.000212395
     20        5          -0.000458533   -0.001320694    0.000169067
     21        5          -0.001214927   -0.000636490   -0.000042405
     22        5          -0.001250457    0.000405600   -0.000281847
     23        5          -0.000505428    0.001129538   -0.000345612
     24        5           0.000495695    0.001229404   -0.000137868
     25        5           0.001371537    0.000174452   -0.000058525
     26        5           0.000834318   -0.000985244   -0.000461070
     27        5           0.001444157   -0.000245214    0.000267528
     28        7          -0.001344083    0.000111470   -0.000157525
     29        7          -0.000391949    0.000744692   -0.000235932
     30        7           0.000426400    0.000650394   -0.000128052
     31        7           0.000780016    0.000092207    0.000086237
     32        7           0.000527019   -0.000591266    0.000254081
     33        7          -0.000230018   -0.000821272    0.000224557
     34        7          -0.001216879   -0.000334783   -0.000150121
     35        7          -0.001794348    0.000738344   -0.000756797
     36        7          -0.002086301   -0.000003512   -0.000272579
 -------------------------------------------------------------------
 Cartesian Forces:  Max     0.005385564 RMS     0.001313935

 GradGradGradGradGradGradGradGradGradGradGradGradGradGradGradGradGradGrad
 Berny optimization.
 FormGI is forming the generalized inverse of G from B-inverse, IUseBI=4.
 Internal  Forces:  Max     0.006346289 RMS     0.001241050
 Search for a local minimum.
 Step number   1 out of a maximum of  184
 All quantities printed in internal units (Hartrees-Bohrs-Radians)
 Mixed Optimization -- RFO/linear search
 Second derivative matrix not updated -- first step.
 ITU=  0
     Eigenvalues ---    0.00230   0.00230   0.00230   0.00658   0.00901
     Eigenvalues ---    0.01405   0.01635   0.01863   0.02073   0.02308
     Eigenvalues ---    0.02381   0.02560   0.02830   0.02830   0.02830
     Eigenvalues ---    0.02830   0.02830   0.02980   0.03062   0.03284
     Eigenvalues ---    0.03357   0.03357   0.03357   0.03357   0.03357
     Eigenvalues ---    0.03357   0.03357   0.03357   0.03616   0.03643
     Eigenvalues ---    0.03687   0.03969   0.04460   0.04460   0.04460
     Eigenvalues ---    0.04460   0.04460   0.04843   0.05943   0.07473
     Eigenvalues ---    0.08075   0.11403   0.12283   0.13600   0.14018
     Eigenvalues ---    0.15590   0.16396   0.18149   0.21981   0.24192
     Eigenvalues ---    0.25000   0.25000   0.25000   0.25000   0.25000
     Eigenvalues ---    0.25000   0.25000   0.25000   0.25000   0.25000
     Eigenvalues ---    0.25000   0.25000   0.25000   0.25000   0.25000
     Eigenvalues ---    0.25000   0.51750   0.55275   0.55953   0.55997
     Eigenvalues ---    0.56318   0.56318   0.56318   0.56318   0.56318
     Eigenvalues ---    0.56318   0.59814   0.61550   0.62161   0.62375
     Eigenvalues ---    0.62558   0.63410   0.63410   0.63410   0.63410
     Eigenvalues ---    0.63410   0.63416   0.63419   0.63425   0.63425
     Eigenvalues ---    0.63425   0.63425   0.63425   0.89317   0.94270
     Eigenvalues ---    0.94374   0.95064   0.95064   0.95064   0.95064
     Eigenvalues ---    0.95064   0.95064
 RFO step:  Lambda=-1.52296907D-03 EMin= 2.30000000D-03
 Linear search not attempted -- first point.
 Iteration  1 RMS(Cart)=  0.13488282 RMS(Int)=  0.00139708
 Iteration  2 RMS(Cart)=  0.00462711 RMS(Int)=  0.00024225
 Iteration  3 RMS(Cart)=  0.00000715 RMS(Int)=  0.00024224
 Iteration  4 RMS(Cart)=  0.00000001 RMS(Int)=  0.00024224
 Variable       Old X    -DE/DX   Delta X   Delta X   Delta X     New X
                                 (Linear)    (Quad)   (Total)
    R1        2.30683   0.00243   0.00000   0.00253   0.00253   2.30936
    R2        2.53979   0.00045   0.00000   0.00076   0.00076   2.54055
    R3        2.53979   0.00048   0.00000   0.00083   0.00083   2.54062
    R4        2.30683   0.00228   0.00000   0.00240   0.00240   2.30923
    R5        2.53979   0.00076   0.00000   0.00136   0.00136   2.54115
[...]
 422,0.00006811,0.01113315,-0.00619269,0.00418240,-0.03478764,0.1021949
 4,-0.06000940,0.02953125,0.06746385,-0.04612056,-0.01017732,-0.0048553
 1,0.00168049,-0.00597326,0.00118893,-0.00138665,-0.00237400,0.00292827
 ,-0.00089504,0.00010681,0.00313593,-0.00046631,0.00270962,0.00292532,-
 0.00029744,-0.00452081,-0.00195476,0.00006619,-0.00861446,0.00251851,-
 0.00140148,-0.01179995,0.02053789,0.00901768,0.00492232,-0.20156680,0.
 08058304,-0.00004855,0.00010282,0.00001009,0.00017650,-0.00008550,-0.0
 0004009,-0.00003188,0.00005373,-0.00009632,0.00000913,-0.00004535,0.00
 009657,0.00009393,0.00001968,-0.00007837,-0.00009459,-0.00000878,0.000
 05471,0.00012513,-0.00001544,0.00004050,-0.00009085,0.00002579,-0.0000
 7029,0.00006072,-0.00004464,0.00012413,-0.00001381,0.00005659,-0.00011
 308,-0.00006475,-0.00007612,0.00011380,0.00007277,0.00009216,-0.000099
 70,-0.00007997,-0.00004468,-0.00017257,-0.00014860,-0.00001986,0.00009
 534,0.00010913,0.00046193,0.00053168,-0.00044832,0.00021208,-0.0002773
 5,0.00009940,-0.00006197,0.00021415,0.00019388,-0.00002466,-0.00043451
 ,-0.01250342,-0.00227695,-0.00076278,-0.01698507,0.00922992,-0.0035536
 3,-0.01014652,0.03087973,-0.00790611,-0.09870458,-0.16515247,0.0289900
 1,-0.41773057,-0.20035268,-0.00371047,0.04610357,-0.00877243,0.0077648
 5,0.01437842,-0.01702263,0.00512136,-0.00014449,-0.01336374,0.00191555
 ,-0.00718383,-0.00809453,0.00073258,0.00965681,0.00511362,0.00000866,0
 .01443445,-0.00327202,0.00209440,0.01407420,-0.02031560,0.00578239,0.0
 0267133,-0.05837340,0.01135746,0.56193161,0.00007678,0.00002558,0.0003
 6324,0.00023309,-0.00003082,-0.00038315,-0.00012216,0.00002531,0.00005
 346,0.00019235,-0.00002783,0.00001110,0.00002651,0.00001464,-0.0001210
 0,-0.00002978,-0.00001177,0.00012592,0.00020826,-0.00000933,-0.0000056
 0,-0.00016708,0.00001724,-0.00005634,0.00019914,-0.00003835,0.00027373
 ,-0.00003764,0.00004470,-0.00029233,-0.00014224,-0.00006076,0.00047104
 ,0.00033041,0.00005701,-0.00038997,-0.00056722,0.00000257,0.00013852,0
 .00018757,0.00000414,-0.00038325,0.00063526,0.00001748,-0.00106496,-0.
 00045216,-0.00004392,0.00142520,0.00010596,-0.00001672,0.00075506,-0.0
 0016499,0.00004184,-0.00080793,-0.01446477,-0.00230815,-0.00093688,-0.
 02070527,0.01198656,-0.00458615,-0.01561854,0.04583514,-0.01107062,-0.
 16980065,-0.43716037,0.06906225,-0.19567645,-0.13058775,-0.00331602,0.
 03700081,-0.00635844,0.00660652,0.01332161,-0.01653949,0.00472889,-0.0
 0027140,-0.01319205,0.00186195,-0.00770272,-0.00827718,0.00073370,0.01
 081776,0.00524019,0.00008413,0.01727462,-0.00454010,0.00266321,0.01765
 360,-0.02717974,0.00757043,-0.01795243,-0.07265817,0.01695486,0.438811
 03,0.62450180,0.00003310,0.00000150,0.00002147,-0.00007026,-0.00000498
 ,-0.00001487,0.00000007,0.00000101,0.00006062,0.00001013,-0.00000019,-
 0.00005670,-0.00005470,0.00000078,0.00004457,0.00006371,-0.00000118,-0
 .00001934,-0.00007705,0.00000404,-0.00002398,0.00005645,-0.00000580,0.
 00005036,-0.00003132,0.00000818,-0.00008736,-0.00000350,-0.00000931,0.
 00009406,0.00007324,0.00001090,-0.00007953,-0.00007927,-0.00000328,0.0
 0008441,0.00010632,0.00002414,0.00021887,0.00021774,-0.00015621,0.0000
 7606,-0.00045006,0.00008390,-0.00001401,0.00040643,0.00003424,-0.00037
 870,-0.00020937,0.00013537,-0.00016999,-0.00013475,-0.00005372,0.00030
 593,0.00170465,0.00024647,0.00006086,0.00264614,-0.00162666,0.00021929
 ,0.00211135,-0.00607209,0.00335347,0.02990798,0.06942859,-0.04642811,-
 0.00459841,-0.00369866,-0.03426092,-0.00251163,0.00070118,0.00138803,-
 0.00098361,0.00129712,-0.00070966,0.00004679,0.00112657,-0.00019502,0.
 00079581,0.00082211,-0.00009937,-0.00121717,-0.00053083,0.00001828,-0.
 00213467,0.00063410,-0.00019292,-0.00228578,0.00359017,-0.00103605,0.0
 0256701,0.01243679,0.01218629,-0.03202885,-0.07655131,0.04994582,0.000
 09303,-0.00011078,0.00052709,0.00042872,0.00004880,-0.00068329,-0.0002
 0631,-0.00004256,0.00006057,0.00036853,0.00001273,-0.00000234,0.000060
 23,-0.00001158,-0.00022158,-0.00000228,-0.00000100,0.00024428,0.000366
 27,-0.00001133,-0.00001642,-0.00024746,0.00000964,-0.00004908,0.000351
 42,-0.00001175,0.00045270,-0.00008998,0.00000122,-0.00040147,-0.000194
 73,0.00000457,0.00074753,0.00041499,-0.00005308,-0.00051649,-0.0008009
 0,0.00009196,0.00020963,0.00034556,-0.00002554,-0.00043622,0.00065883,
 0.00005201,-0.00108305,-0.00072751,-0.00009281,0.00151250,0.00018569,0
 .00008945,0.00093111,-0.00040594,0.00011819,-0.00104793,-0.01535453,-0
 .00268565,-0.00091887,-0.01659096,0.00914531,-0.00352527,-0.01017747,0
 .02819539,-0.00708658,0.02223568,0.05296440,-0.00925869,-0.41004004,-0
 .20004835,-0.00226957,-0.48702889,0.08927879,-0.08149410,0.03860370,-0
 .04546909,0.01343139,-0.00023868,-0.03011633,0.00438102,-0.01218080,-0
 .01338048,0.00128981,0.01351981,0.00780098,-0.00015880,0.01569567,-0.0
 0309383,0.00217482,0.01327497,-0.01813982,0.00520042,-0.00535001,-0.03
 981828,0.00801527,-0.06827054,-0.06563844,0.00414041,1.02021257,0.0002
 0203,-0.00007054,0.00027407,0.00001493,0.00003605,-0.00033910,-0.00002
 728,-0.00002103,0.00014123,0.00013916,0.00001086,-0.00009730,-0.000020
 81,-0.00000662,-0.00000206,0.00005357,-0.00000138,0.00002577,0.0000737
 8,0.00000153,0.00000501,-0.00003813,-0.00000242,-0.00002148,0.00008645
 ,-0.00000184,0.00016183,0.00003334,-0.00000159,-0.00015089,-0.00012375
 ,0.00000024,0.00028816,0.00025381,-0.00002070,-0.00018400,-0.00045749,
 0.00002094,0.00009040,0.00031107,0.00008531,-0.00023784,0.00015047,-0.
 00035535,-0.00136600,-0.00032572,-0.00003870,0.00128103,0.00023392,0.0
 0020780,0.00043140,-0.00057665,0.00001666,-0.00013699,-0.00208389,-0.0
 0014420,-0.00016796,-0.00295337,0.00188169,-0.00068597,-0.00180801,0.0
 0630290,-0.00161609,0.00649013,0.01651498,-0.00246181,-0.20481068,-0.1
 3832287,-0.00250391,0.09384553,-0.04812348,0.01570390,0.00057838,0.000
 20158,0.00030853,-0.00026810,-0.00239194,0.00025450,-0.00120496,-0.001
 09247,0.00010000,0.00160841,0.00062628,0.00002990,0.00245744,-0.000801
 45,0.00040869,0.00241731,-0.00399232,0.00112340,-0.00189476,-0.0097561
 3,0.00187458,-0.02553818,-0.00569849,0.00127129,0.13343241,0.16639244,
 0.00007233,-0.00003199,0.00015144,-0.00006670,0.00003163,-0.00019113,-
 0.00004851,-0.00003518,0.00013377,0.00009682,0.00002561,-0.00011157,-0
 .00008901,-0.00001682,0.00003739,0.00011512,0.00000994,0.00001588,-0.0
 0005600,-0.00000747,-0.00004085,0.00004930,0.00000368,0.00007198,0.000
 01626,-0.00000262,-0.00004800,-0.00001244,-0.00000037,0.00006701,0.000
 06398,0.00000210,0.00003048,-0.00000746,-0.00000802,0.00002235,-0.0000
 0634,0.00002923,0.00025947,0.00011273,-0.00013559,-0.00000955,-0.00032
 748,0.00003060,-0.00008966,0.00037875,0.00028977,-0.00029355,0.0002033
 7,0.00004766,-0.00022064,-0.00041482,-0.00004096,0.00030510,-0.0014737
 5,-0.00028709,-0.00011724,-0.00135902,0.00071591,-0.00033682,-0.000770
 32,0.00197794,-0.00088049,0.00111796,0.00328248,0.00125775,-0.00156622
 ,-0.00201508,-0.03406403,-0.08197135,0.01513723,-0.04874794,0.00490700
 ,-0.00597166,0.00368820,0.00006775,-0.00378909,0.00022484,-0.00135230,
 -0.00152499,0.00011580,0.00138890,0.00087552,0.00000210,0.00139292,-0.
 00021071,0.00021937,0.00105105,-0.00131931,0.00053467,-0.00027683,-0.0
 0276466,0.00051995,-0.00474861,-0.00374480,0.01473834,0.09897207,-0.01
 308947,0.05275985,0.00024843,-0.00002777,0.00102336,0.00022538,0.00003
 689,-0.00131727,-0.00035713,-0.00006708,0.00032916,0.00070496,0.000025
 24,-0.00025891,-0.00001790,-0.00002977,-0.00024742,0.00021860,0.000004
 61,0.00035294,0.00048552,-0.00002793,-0.00005470,-0.00026210,0.0000272
 8,0.00002727,0.00049494,-0.00003462,0.00068933,-0.00010314,0.00003487,
 -0.00052013,-0.00042333,-0.00004258,0.00108212,0.00062682,0.00000403,-
 0.00068377,-0.00134752,0.00002667,0.00010186,0.00092434,0.00013354,-0.
 00046830,0.00027704,-0.00035503,-0.00207646,-0.00069986,-0.00017821,0.
 00188645,0.00102495,0.00012059,0.00071660,-0.00175236,-0.00008865,-0.0
 0048606,-0.01462521,-0.00235381,-0.00083877,-0.01143809,0.00639614,-0.
 00242341,-0.00562740,0.01558064,-0.00390753,0.01033130,0.02564995,-0.0
 0430580,0.04981628,0.02631391,0.00033092,-0.48840932,0.08325610,-0.080
 14214,-0.21464326,0.22537282,-0.06880692,0.00054490,-0.04456884,0.0062
 3268,-0.01569235,-0.01673950,0.00172291,0.01482886,0.00916150,-0.00037
 937,0.01277818,-0.00202396,0.00161805,0.00843335,-0.01073797,0.0031121
 7,-0.00209016,-0.02017514,0.00406786,-0.02837035,-0.02525877,0.0019294
 4,-0.08711199,-0.00016732,-0.01381046,0.78852207,-0.00019706,0.0001216
 7,-0.00020683,-0.00003721,-0.00004456,0.00042048,0.00018971,0.00003440
 ,-0.00008518,-0.00025576,-0.00002745,0.00012102,0.00001818,0.00001534,
 0.00016960,-0.00010685,-0.00001464,-0.00020496,-0.00022463,0.00001205,
 0.00006385,0.00014458,-0.00002340,-0.00007211,-0.00023466,0.00001004,-
 0.00028648,0.00010194,-0.00000303,0.00014887,0.00010017,-0.00001005,-0
 .00039888,-0.00013807,0.00004178,0.00020715,0.00030807,-0.00005506,-0.
 00016201,-0.00008472,0.00009557,0.00006770,-0.00023766,0.00004753,0.00
 034087,0.00004304,-0.00028107,-0.00053798,-0.00009414,-0.00033284,-0.0
 0057742,0.00011716,-0.00014513,0.00047799,0.00983285,0.00175276,0.0005
 2161,0.00695676,-0.00364244,0.00140949,0.00317821,-0.00814446,0.002051
 94,-0.00459865,-0.01266460,0.00211698,-0.01957777,-0.00974807,-0.00001
 474,0.07869746,-0.04420694,0.01305763,0.22992293,-0.30931751,0.0854156
 2,0.00052794,0.03708510,-0.00506502,0.01092912,0.01216964,-0.00134422,
 -0.01022884,-0.00670352,0.00035180,-0.00820682,0.00098680,-0.00096361,
 -0.00498840,0.00580046,-0.00171037,0.00062304,0.01013045,-0.00205828,0
 .01254733,0.01191558,-0.00100344,0.03956233,0.01455424,0.00533877,-0.3
 7140649,0.36739746,0.00011070,0.00008429,0.00049351,-0.00033002,0.0000
 1863,-0.00043368,-0.00022499,0.00000025,0.00034318,0.00027959,0.000008
 41,-0.00030505,-0.00023225,0.00000102,-0.00000592,0.00027811,0.0000033
 2,0.00012345,-0.00003428,-0.00000393,-0.00011660,0.00005715,-0.0000078
 9,0.00018997,0.00015454,-0.00000145,-0.00001273,-0.00006409,-0.0000068
 5,0.00006618,0.00011210,-0.00001156,0.00025853,0.00003250,-0.00002037,
 -0.00010086,-0.00027673,-0.00001621,0.00045141,0.00026522,0.00005960,-
 0.00029908,-0.00049704,-0.00013948,-0.00043023,0.00062370,0.00020483,-
 0.00011932,0.00027623,-0.00054509,-0.00064829,-0.00066129,-0.00008456,
 0.00042804,-0.00390041,-0.00063545,-0.00025708,-0.00282688,0.00156459,
 -0.00063128,-0.00130214,0.00359085,-0.00095394,0.00230623,0.00571585,-
 0.00132828,0.01009417,0.00572897,0.00194377,-0.07973327,0.01393688,-0.
 04800316,-0.06887429,0.08431715,-0.05957158,-0.00033946,-0.01347684,0.
 00383154,-0.00430081,-0.00477666,0.00017992,0.00404000,0.00260608,0.00
 000110,0.00329001,-0.00047179,0.00043839,0.00203591,-0.00252799,0.0007
 7429,-0.00044033,-0.00455117,0.00106522,-0.00620737,-0.00564715,0.0003
 7115,-0.02161084,-0.00003937,0.01143326,0.17774641,-0.11554533,0.08349
 697,0.00053404,0.00006478,0.00131541,-0.00064890,-0.00007010,-0.001580
 25,-0.00103986,0.00026000,0.00092791,0.00039127,0.00004309,-0.00045586
 ,-0.00038324,0.00011311,-0.00029164,-0.00014267,0.00012747,0.00061220,
 0.00069153,-0.00008006,0.00015429,-0.00059463,0.00010342,0.00000007,0.
 00031865,-0.00018178,0.00115261,-0.00007830,0.00015563,-0.00087547,-0.
 00091678,-0.00013558,0.00093400,0.00088857,0.00010020,-0.00072361,-0.0
 0121927,-0.00003280,-0.00030307,0.00091178,-0.00003603,0.00009331,0.00
 037421,-0.00003742,-0.00111221,-0.00042276,-0.00008167,0.00101357,0.00
 108202,-0.00003657,0.00008272,-0.00180206,-0.00024212,-0.00047060,-0.0
 0597595,-0.00069759,-0.00035070,-0.00386060,0.00222067,-0.00082227,-0.
 00157790,0.00451353,-0.00112193,0.00266728,0.00662731,-0.00110234,0.01
 131270,0.00591154,0.00024142,0.02864533,-0.00476558,0.00480861,-0.2223
 9853,0.22838720,-0.06988268,-0.02807999,-0.02263560,0.00398003,-0.0042
 0101,-0.00553880,0.00050519,0.00613476,0.00379909,-0.00014133,0.004752
 14,-0.00075587,0.00057736,0.00268280,-0.00331247,0.00095991,-0.0004838
 6,-0.00545094,0.00110030,-0.00678381,-0.00623476,0.00046231,-0.0180609
 1,-0.00077733,-0.00231877,-0.02545496,0.03240571,-0.01208396,0.2459727
 2,-0.00028386,0.00010471,-0.00065538,0.00031687,-0.00014728,0.00083444
 ,0.00047706,-0.00002773,-0.00061835,-0.00036586,-0.00016038,0.00040498
 ,0.00043460,-0.00005922,0.00003912,-0.00047076,-0.00010972,-0.00017788
 ,-0.00016048,-0.00011074,0.00028683,0.00003107,-0.00002028,-0.00039841
 ,-0.00049497,-0.00009846,-0.00034730,0.00025234,0.00001822,0.00006119,
 0.00011615,-0.00006929,-0.00082062,-0.00021003,0.00006571,0.00043873,0
 .00082633,-0.00005964,-0.00042597,-0.00058922,0.00002334,0.00039596,0.
 00036823,0.00029340,0.00103569,-0.00028800,0.00002892,-0.00064939,-0.0
 0044772,0.00017285,0.00008116,0.00075544,-0.00014856,-0.00015880,0.028
 06467,0.00414767,0.00143152,0.01507994,-0.00868913,0.00312714,0.004811
 46,-0.01348398,0.00332907,-0.00637547,-0.01614128,0.00269602,-0.024535
 13,-0.01351315,-0.00039108,-0.05064048,0.00972119,-0.00908352,0.224788
 14,-0.29484706,0.08155687,-0.02120520,-0.50869022,0.06745859,0.0381582
 8,0.04115874,-0.00421071,-0.03215390,-0.02142011,0.00129033,-0.0210304
 0,0.00242899,-0.00229847,-0.00968606,0.01093294,-0.00318531,0.00072016
 ,0.01453308,-0.00297558,0.01495940,0.01460830,-0.00119449,0.03707231,0
 .00238473,0.00466853,0.07210666,-0.04447246,0.02193273,-0.24844475,0.9
 0896913,0.00046973,-0.00028849,-0.00045154,-0.00064704,-0.00011955,-0.
 00047991,0.00007692,-0.00019351,0.00050091,0.00033171,-0.00011797,-0.0
 0132455,-0.00097467,0.00011262,-0.00000893,0.00099530,-0.00009667,-0.0
 0016423,-0.00041050,0.00014245,-0.00072037,0.00033337,-0.00008182,0.00
 071076,0.00046148,-0.00000652,-0.00018787,-0.00033992,0.00000414,0.000
 36891,0.00013313,-0.00010884,0.00069393,-0.00003889,0.00010929,-0.0003
 6202,-0.00083409,-0.00010627,0.00047755,0.00077371,0.00016039,-0.00046
 457,-0.00100207,-0.00014813,-0.00049364,0.00110118,0.00012587,0.000098
 91,-0.00032684,-0.00010877,-0.00056422,0.00015444,-0.00014572,0.000018
 20,-0.00544770,-0.00083820,-0.00061291,-0.00300893,0.00176016,-0.00067
 954,-0.00097369,0.00283385,-0.00073059,0.00143881,0.00352311,-0.000632
 06,0.00565623,0.00296465,-0.00023873,0.01211760,-0.00197991,0.00411320
 ,-0.06962422,0.08304338,-0.05873421,0.00404827,0.06712425,-0.04205948,
 -0.00719506,-0.00750087,0.00272262,0.00619613,0.00407116,-0.00038385,0
 .00413036,-0.00049250,0.00059020,0.00194019,-0.00226427,0.00068957,-0.
 00021308,-0.00311797,0.00066645,-0.00342169,-0.00321256,0.00038486,-0.
 00865120,-0.00048726,-0.00120683,-0.01804541,0.01479856,0.00871090,0.0
 7684525,-0.17779816,0.07848366,0.00045273,-0.00014593,0.00103819,-0.00
 029285,0.00017877,-0.00132798,-0.00045911,-0.00013179,0.00053974,0.000
 79748,0.00015058,-0.00074847,-0.00033895,-0.00005532,-0.00044295,0.000
 45103,0.00000739,0.00033612,0.00047861,-0.00004209,-0.00039255,-0.0005
 9932,-0.00006603,0.00009403,0.00036002,0.00004905,0.00129081,-0.000462
 95,-0.00016797,-0.00127573,-0.00177391,0.00020434,0.00147921,0.0012708
 7,-0.00004481,-0.00082852,-0.00129617,0.00011757,-0.00073462,0.0008823
 5,0.00001450,0.00055045,0.00048953,0.00006413,-0.00081128,-0.00063117,
 0.00010029,0.00121951,0.00110028,-0.00004359,0.00040243,-0.00136111,0.
 00012186,-0.00038738,0.03276375,0.00418160,0.00172488,0.01248764,-0.00
 734987,0.00261911,0.00251099,-0.00782172,0.00189411,-0.00232549,-0.005
 35564,0.00089412,-0.00511772,-0.00263622,-0.00006510,-0.00780039,0.001
 28416,-0.00132527,-0.00619602,0.00860494,-0.00289590,-0.02750095,-0.00
 801007,0.00165328,-0.25979093,-0.24261406,0.02349822,-0.03373136,-0.03
 531339,0.00244528,-0.02066978,0.00172831,-0.00209655,-0.00724829,0.007
 53266,-0.00222562,-0.00003660,0.00645116,-0.00136097,0.00365352,0.0039
 3268,-0.00040870,0.00626425,0.00069432,0.00067009,0.00794049,-0.005588
 78,0.00223789,0.01676618,-0.02195681,0.00395123,0.28896335,0.00002092,
 0.00008713,0.00046442,0.00025882,-0.00006846,-0.00067016,-0.00023269,0
 .00001592,-0.00010142,0.00050111,-0.00010296,-0.00009528,0.00016082,-0
 .00002735,-0.00038354,0.00004174,-0.00009297,0.00033037,0.00052235,-0.
 00010801,0.00008652,-0.00033490,-0.00000416,-0.00008587,0.00020563,-0.
 00015122,0.00065364,-0.00010539,0.00001227,-0.00083248,-0.00051491,-0.
 00020717,0.00038181,0.00044097,0.00011693,-0.00037112,-0.00068584,-0.0
 0002421,-0.00040796,0.00036800,0.00008011,0.00031404,0.00045256,0.0000
 9869,-0.00009943,-0.00079908,0.00020428,0.00051208,0.00050242,0.000046
 39,0.00045862,-0.00057115,-0.00000546,-0.00054181,0.05078311,0.0076934
 5,0.00289163,0.02314465,-0.01428140,0.00483759,0.00504932,-0.01610278,
 0.00387592,-0.00579229,-0.01311289,0.00215338,-0.01555125,-0.00798132,
 -0.00028008,-0.02718532,0.00512476,-0.00505352,-0.03463769,0.04203449,
 -0.01311241,-0.00978719,-0.50904386,0.06902743,-0.23889195,-0.28116207
 ,0.02320584,-0.07562606,-0.04099416,0.00386093,-0.03648405,0.00376819,
 -0.00382187,-0.01360608,0.01496429,-0.00429456,0.00041458,0.01433671,-
 0.00296021,0.01039581,0.01040133,-0.00094632,0.02087019,0.00160526,0.0
 0252926,0.03003200,-0.02233365,0.00873570,0.01471508,-0.08732320,0.018
 44007,0.30192576,0.89253708,0.00034842,0.00005543,0.00004447,-0.000503
 49,-0.00005904,0.00016328,0.00003325,-0.00005814,0.00069269,-0.0001067
 3,0.00006135,-0.00061301,-0.00074314,-0.00009058,0.00039494,0.00084645
 ,0.00014382,-0.00041792,-0.00074155,-0.00007872,-0.00074621,0.00078131
 ,0.00008419,0.00054770,0.00042566,-0.00010490,-0.00094673,-0.00038205,
 -0.00026900,-0.00001145,0.00072926,-0.00023315,-0.00048241,-0.00036185
 ,-0.00016318,-0.00070024,-0.00105417,0.00016617,0.00042974,0.00079461,
 -0.00013732,-0.00052938,-0.00104270,0.00016607,-0.00053081,0.00107870,
 -0.00014342,0.00019473,-0.00027994,0.00016642,-0.00054906,0.00021891,-
 0.00010346,0.00068476,-0.00519398,-0.00055165,0.00165270,-0.00246709,0
 .00148969,-0.00086485,-0.00057717,0.00179382,-0.00048427,0.00068892,0.
 00158974,-0.00029173,0.00204623,0.00107338,-0.00000517,0.00380118,-0.0
 0077531,0.00038728,0.00495752,-0.00605669,0.00386468,0.00158675,0.0685
 2287,-0.04279734,0.02342504,0.02389068,-0.03587848,0.00811892,0.006043
 54,0.01385243,0.00388775,-0.00041642,0.00030502,0.00146773,-0.00161994
 ,0.00060469,-0.00005985,-0.00166314,0.00037524,-0.00132647,-0.00131323
 ,0.00014379,-0.00285886,-0.00018618,-0.00023069,-0.00419668,0.00315694
 ,-0.00138368,-0.00212977,0.01432052,0.01126943,-0.03121111,-0.10870119
 ,0.05185584\\-0.00001088,-0.00001980,-0.00000168,-0.00000189,0.0000229
 6,-0.00000339,0.00000393,-0.00001507,-0.00000553,0.00000011,0.00000501
 ,0.00000597,0.00000518,-0.00000985,-0.00000267,-0.00000250,0.00001025,
 0.00000693,-0.00000397,-0.00001427,-0.00000711,0.00000106,0.00001493,0
 .00001173,-0.00000666,-0.00001346,-0.00002745,0.00000529,0.00002618,0.
 00002145,-0.00000051,-0.00005791,-0.00001373,0.00001061,0.00007851,-0.
 00000228,-0.00002290,-0.00008679,0.00001321,0.00001456,0.00008005,-0.0
 0001277,-0.00000169,-0.00007889,-0.00000527,-0.00000837,0.00009176,0.0
 0000489,-0.00000097,-0.00007946,-0.00001039,0.00001638,0.00005117,0.00
 002586,-0.00000303,-0.00000394,0.00000270,-0.00000806,-0.00001511,-0.0
 0000487,-0.00000531,-0.00001207,0.00001767,0.00000134,-0.00001031,0.00
 001004,0.00002820,-0.00000289,0.00000912,0.00000637,0.00001510,-0.0000
 0476,-0.00000659,-0.00002892,-0.00000593,0.00000349,-0.00000239,-0.000
 00155,0.00000094,0.00000248,0.00000371,-0.00000218,-0.00000471,-0.0000
 0426,0.00000125,0.00001248,-0.00000143,0.00002141,0.00001892,-0.000007
 25,-0.00000133,-0.00000180,-0.00001213,-0.00003220,0.00003080,-0.00001
 345,-0.00000058,-0.00003812,-0.00000341,0.00000623,0.00001586,0.000013
 25,0.00000002,0.00001768,-0.00000456,-0.00000674,0.00000161,0.00000935
 \\\@


 I WANT IT ALL - RICH, THIN, AND CHOCOLATE.
 Job cpu time:       0 days 10 hours 43 minutes  8.6 seconds.
 Elapsed time:       0 days  1 hours 21 minutes  0.4 seconds.
 File lengths (MBytes):  RWF=   2863 Int=      0 D2E=      0 Chk=     34 Scr=      1
 Normal termination of Gaussian 16 at Thu May 26 03:47:25 2022.
