 Entering Gaussian System, Link 0=g16
 Initial command:
 /sob/g16/l1.exe "/hard/gauscr/Gau-52828.inp" -scrdir="/hard/gauscr/"
 Default is to use a total of  36 processors:
                               36 via shared-memory
                                1 via Linda
 Entering Link 1 = /sob/g16/l1.exe PID=     52830.
  
 Copyright (c) 1988-2019, Gaussian, Inc.  All Rights Reserved.
  
 This is part of the Gaussian(R) 16 program.  It is based on
 the Gaussian(R) 09 system (copyright 2009, Gaussian, Inc.),
 the Gaussian(R) 03 system (copyright 2003, Gaussian, Inc.),
 the Gaussian(R) 98 system (copyright 1998, Gaussian, Inc.),
 the Gaussian(R) 94 system (copyright 1995, Gaussian, Inc.),
 the Gaussian 92(TM) system (copyright 1992, Gaussian, Inc.),
 the Gaussian 90(TM) system (copyright 1990, Gaussian, Inc.),
 the Gaussian 88(TM) system (copyright 1988, Gaussian, Inc.),
 the Gaussian 86(TM) system (copyright 1986, Carnegie Mellon
 University), and the Gaussian 82(TM) system (copyright 1983,
 Carnegie Mellon University). Gaussian is a federally registered
 trademark of Gaussian, Inc.
  
 This software contains proprietary and confidential information,
 including trade secrets, belonging to Gaussian, Inc.
  
 This software is provided under written license and may be
 used, copied, transmitted, or stored only in accord with that
 written license.
  
 The following legend is applicable only to US Government
 contracts under FAR:
  
                    RESTRICTED RIGHTS LEGEND
  
 Use, reproduction and disclosure by the US Government is
 subject to restrictions as set forth in subparagraphs (a)
 and (c) of the Commercial Computer Software - Restricted
 Rights clause in FAR 52.227-19.
  
 Gaussian, Inc.
 340 Quinnipiac St., Bldg. 40, Wallingford CT 06492
  
  
 ---------------------------------------------------------------
 Warning -- This program may not be used in any manner that
 competes with the business of Gaussian, Inc. or will provide
 assistance to any competitor of Gaussian, Inc.  The licensee
 of this program is prohibited from giving any competitor of
 Gaussian, Inc. access to this program.  By using this program,
 the user acknowledges that Gaussian, Inc. is engaged in the
 business of creating and licensing software in the field of
 computational chemistry and represents and warrants to the
 licensee that it is not a competitor of Gaussian, Inc. and that
 it will not use this program in any manner prohibited above.
 ---------------------------------------------------------------
  

 Cite this work as:
 Gaussian 16, Revision C.01,
 M. J. Frisch, G. W. Trucks, H. B. Schlegel, G. E. Scuseria, 
 M. A. Robb, J. R. Cheeseman, G. Scalmani, V. Barone, 
 G. A. Petersson, H. Nakatsuji, X. Li, M. Caricato, A. V. Marenich, 
 J. Bloino, B. G. Janesko, R. Gomperts, B. Mennucci, H. P. Hratchian, 
 J. V. Ortiz, A. F. Izmaylov, J. L. Sonnenberg, D. Williams-Young, 
 F. Ding, F. Lipparini, F. Egidi, J. Goings, B. Peng, A. Petrone, 
 T. Henderson, D. Ranasinghe, V. G. Zakrzewski, J. Gao, N. Rega, 
 G. Zheng, W. Liang, M. Hada, M. Ehara, K. Toyota, R. Fukuda, 
 J. Hasegawa, M. Ishida, T. Nakajima, Y. Honda, O. Kitao, H. Nakai, 
 T. Vreven, K. Throssell, J. A. Montgomery, Jr., J. E. Peralta, 
 F. Ogliaro, M. J. Bearpark, J. J. Heyd, E. N. Brothers, K. N. Kudin, 
 V. N. Staroverov, T. A. Keith, R. Kobayashi, J. Normand, 
 K. Raghavachari, A. P. Rendell, J. C. Burant, S. S. Iyengar, 
 J. Tomasi, M. Cossi, J. M. Millam, M. Klene, C. Adamo, R. Cammi, 
 J. W. Ochterski, R. L. Martin, K. Morokuma, O. Farkas, 
 J. B. Foresman, and D. J. Fox, Gaussian, Inc., Wallingford CT, 2019.
 
 ******************************************
 Gaussian 16:  ES64L-G16RevC.01  3-Jul-2019
                 7-Jul-2022 
 ******************************************
 %chk=CNT66.chk
 Default route: IOp(8/117=-99) IOp(7/127=-99) scf=noincore
 --------------------------------------------
 #p pbe1pbe/6-31g(d) int=fine td(nstates=100)
 --------------------------------------------
 1/38=1,172=1/1;
 2/12=2,17=6,18=5,40=1/2;
 3/5=1,6=6,7=1,11=9,25=1,30=1,74=-13,75=-4/1,2,3,8;
 4//1;
 5/5=2,38=5/2;
 8/6=1,10=2,108=100,117=-99/1;
 9/41=100,42=1,70=2/14;
 6/7=2,8=2,9=2,10=2/1;
 99/5=1,9=1/99;
 Leave Link    1 at Thu Jul  7 01:47:04 2022, MaxMem=           0 cpu:               2.6 elap:               0.1
 (Enter /sob/g16/l101.exe)
 ------------------
 b3lyp/6-31G* opted
 ------------------
 Symbolic Z-matrix:
 Charge =  0 Multiplicity = 1
 C                     1.38133   3.79545   3.66384 
 C                     1.38133   3.79545  -1.22116 
 C                     0.70173   3.97787   0. 
 C                     1.38133   3.79545   1.22116 
 C                    -0.70189   3.97791   2.44184 
 C                     0.70189   3.97791   2.44184 
 C                    -1.38133   3.79545   3.66384 
 C                     1.38133   3.79545  -3.66384 
 C                    -0.70189   3.97791  -2.44184 
 C                     0.70189   3.97791  -2.44184 
 C                    -1.38133   3.79545  -1.22116 
 C                    -0.70173   3.97787   0. 
 C                    -2.5963    3.09399   1.22116 
 C                    -1.38133   3.79545   1.22116 
 C                    -3.09402   2.59681   2.44184 
 C                    -2.5963    3.09399   3.66384 
 C                    -2.5963    3.09399  -3.66384 
 C                    -1.38133   3.79545  -3.66384 
 C                    -3.09402   2.59681  -2.44184 
 C                    -2.5963    3.09399  -1.22116 
 C                    -3.7958    1.38122   0. 
 C                    -3.09407   2.59665   0. 
 C                    -3.97762   0.70146   1.22116 
 C                    -3.79592   1.3811    2.44184 
 C                    -3.97762  -0.70146   3.66384 
 C                    -3.97762   0.70146   3.66384 
 C                    -3.97762   0.70146  -3.66384 
 C                    -3.79592   1.3811   -2.44184 
 C                    -3.97762  -0.70146  -1.22116 
 C                    -3.97762   0.70146  -1.22116 
 C                    -3.7958   -1.38122   0. 
 C                    -3.97762  -0.70146   1.22116 
 C                    -3.09402  -2.59681   2.44184 
 C                    -3.79592  -1.3811    2.44184 
 C                    -2.5963   -3.09399   3.66384 
 C                    -3.97762  -0.70146  -3.66384 
 C                    -3.09402  -2.59681  -2.44184 
 C                    -3.79592  -1.3811   -2.44184 
 C                    -2.5963   -3.09399  -1.22116 
 C                    -3.09407  -2.59665   0. 
 C                    -1.38133  -3.79545   1.22116 
 C                    -2.5963   -3.09399   1.22116 
 C                    -0.70189  -3.97791   2.44184 
 C                    -1.38133  -3.79545   3.66384 
 C                    -1.38133  -3.79545  -3.66384 
 C                    -2.5963   -3.09399  -3.66384 
 C                    -0.70189  -3.97791  -2.44184 
 C                    -1.38133  -3.79545  -1.22116 
 C                     0.70173  -3.97787   0. 
 C                    -0.70173  -3.97787   0. 
 C                     1.38133  -3.79545   1.22116 
 C                     0.70189  -3.97791   2.44184 
 C                     2.5963   -3.09399   3.66384 
 C                     1.38133  -3.79545   3.66384 
 C                     1.38133  -3.79545  -3.66384 
 C                     0.70189  -3.97791  -2.44184 
 C                     2.5963   -3.09399  -1.22116 
 C                     1.38133  -3.79545  -1.22116 
 C                     3.09407  -2.59665   0. 
 C                     2.5963   -3.09399   1.22116 
 C                     3.79592  -1.3811    2.44184 
 C                     3.09402  -2.59681   2.44184 
 C                     3.97762  -0.70146   3.66384 
 C                     2.5963   -3.09399  -3.66384 
 C                     3.79592  -1.3811   -2.44184 
 C                     3.09402  -2.59681  -2.44184 
 C                     3.97762  -0.70146  -1.22116 
 C                     3.7958   -1.38122   0. 
 C                     3.97762   0.70146   1.22116 
 C                     3.97762  -0.70146   1.22116 
 C                     3.79592   1.3811    2.44184 
 C                     3.97762   0.70146   3.66384 
 C                     3.97762   0.70146  -3.66384 
 C                     3.97762  -0.70146  -3.66384 
 C                     3.79592   1.3811   -2.44184 
 C                     3.97762   0.70146  -1.22116 
 C                     3.09407   2.59665   0. 
 C                     3.7958    1.38122   0. 
 C                     2.5963    3.09399   1.22116 
 C                     3.09402   2.59681   2.44184 
 C                     2.5963    3.09399   3.66384 
 C                     2.5963    3.09399  -3.66384 
 C                     3.09402   2.59681  -2.44184 
 C                     2.5963    3.09399  -1.22116 
 H                     0.97725   4.18467   4.57496 
 H                    -0.97725   4.18467   4.57496 
 H                     0.97725   4.18467  -4.57496 
 H                    -3.1354    2.93866   4.57496 
 H                    -3.1354    2.93866  -4.57496 
 H                    -0.97725   4.18467  -4.57496 
 H                    -4.11265  -1.24601   4.57496 
 H                    -4.11265   1.24601   4.57496 
 H                    -4.11265   1.24601  -4.57496 
 H                    -3.1354   -2.93866   4.57496 
 H                    -4.11265  -1.24601  -4.57496 
 H                    -0.97725  -4.18467   4.57496 
 H                    -0.97725  -4.18467  -4.57496 
 H                    -3.1354   -2.93866  -4.57496 
 H                     3.1354   -2.93866   4.57496 
 H                     0.97725  -4.18467   4.57496 
 H                     0.97725  -4.18467  -4.57496 
 H                     4.11265  -1.24601   4.57496 
 H                     3.1354   -2.93866  -4.57496 
 H                     4.11265   1.24601   4.57496 
 H                     4.11265   1.24601  -4.57496 
 H                     4.11265  -1.24601  -4.57496 
 H                     3.1354    2.93866   4.57496 
 H                     3.1354    2.93866  -4.57496 
 
 ITRead=  0  0  0  0  0  0  0  0  0  0  0  0  0  0  0  0  0  0  0  0
 ITRead=  0  0  0  0  0  0  0  0  0  0  0  0  0  0  0  0  0  0  0  0
 ITRead=  0  0  0  0  0  0  0  0  0  0  0  0  0  0  0  0  0  0  0  0
 ITRead=  0  0  0  0  0  0  0  0  0  0  0  0  0  0  0  0  0  0  0  0
 ITRead=  0  0  0  0  0  0  0  0  0  0  0  0  0  0  0  0  0  0  0  0
 ITRead=  0  0  0  0  0  0  0  0
 MicOpt= -1 -1 -1 -1 -1 -1 -1 -1 -1 -1 -1 -1 -1 -1 -1 -1 -1 -1 -1 -1
 MicOpt= -1 -1 -1 -1 -1 -1 -1 -1 -1 -1 -1 -1 -1 -1 -1 -1 -1 -1 -1 -1
 MicOpt= -1 -1 -1 -1 -1 -1 -1 -1 -1 -1 -1 -1 -1 -1 -1 -1 -1 -1 -1 -1
 MicOpt= -1 -1 -1 -1 -1 -1 -1 -1 -1 -1 -1 -1 -1 -1 -1 -1 -1 -1 -1 -1
 MicOpt= -1 -1 -1 -1 -1 -1 -1 -1 -1 -1 -1 -1 -1 -1 -1 -1 -1 -1 -1 -1
 MicOpt= -1 -1 -1 -1 -1 -1 -1 -1
 NAtoms=    108 NQM=      108 NQMF=       0 NMMI=      0 NMMIF=      0
                NMic=       0 NMicF=      0.
                    Isotopes and Nuclear Properties:
 (Nuclear quadrupole moments (NQMom) in fm**2, nuclear magnetic moments (NMagM)
  in nuclear magnetons)

  Atom         1           2           3           4           5           6           7           8           9          10
 IAtWgt=          12          12          12          12          12          12          12          12          12          12
 AtmWgt=  12.0000000  12.0000000  12.0000000  12.0000000  12.0000000  12.0000000  12.0000000  12.0000000  12.0000000  12.0000000
 NucSpn=           0           0           0           0           0           0           0           0           0           0
 AtZEff=  -0.0000000  -0.0000000  -0.0000000  -0.0000000  -0.0000000  -0.0000000  -0.0000000  -0.0000000  -0.0000000  -0.0000000
 NQMom=    0.0000000   0.0000000   0.0000000   0.0000000   0.0000000   0.0000000   0.0000000   0.0000000   0.0000000   0.0000000
 NMagM=    0.0000000   0.0000000   0.0000000   0.0000000   0.0000000   0.0000000   0.0000000   0.0000000   0.0000000   0.0000000
 AtZNuc=   6.0000000   6.0000000   6.0000000   6.0000000   6.0000000   6.0000000   6.0000000   6.0000000   6.0000000   6.0000000

  Atom        11          12          13          14          15          16          17          18          19          20
 IAtWgt=          12          12          12          12          12          12          12          12          12          12
 AtmWgt=  12.0000000  12.0000000  12.0000000  12.0000000  12.0000000  12.0000000  12.0000000  12.0000000  12.0000000  12.0000000
 NucSpn=           0           0           0           0           0           0           0           0           0           0
 AtZEff=  -0.0000000  -0.0000000  -0.0000000  -0.0000000  -0.0000000  -0.0000000  -0.0000000  -0.0000000  -0.0000000  -0.0000000
 NQMom=    0.0000000   0.0000000   0.0000000   0.0000000   0.0000000   0.0000000   0.0000000   0.0000000   0.0000000   0.0000000
 NMagM=    0.0000000   0.0000000   0.0000000   0.0000000   0.0000000   0.0000000   0.0000000   0.0000000   0.0000000   0.0000000
 AtZNuc=   6.0000000   6.0000000   6.0000000   6.0000000   6.0000000   6.0000000   6.0000000   6.0000000   6.0000000   6.0000000

  Atom        21          22          23          24          25          26          27          28          29          30
 IAtWgt=          12          12          12          12          12          12          12          12          12          12
 AtmWgt=  12.0000000  12.0000000  12.0000000  12.0000000  12.0000000  12.0000000  12.0000000  12.0000000  12.0000000  12.0000000
 NucSpn=           0           0           0           0           0           0           0           0           0           0
 AtZEff=  -0.0000000  -0.0000000  -0.0000000  -0.0000000  -0.0000000  -0.0000000  -0.0000000  -0.0000000  -0.0000000  -0.0000000
 NQMom=    0.0000000   0.0000000   0.0000000   0.0000000   0.0000000   0.0000000   0.0000000   0.0000000   0.0000000   0.0000000
 NMagM=    0.0000000   0.0000000   0.0000000   0.0000000   0.0000000   0.0000000   0.0000000   0.0000000   0.0000000   0.0000000
 AtZNuc=   6.0000000   6.0000000   6.0000000   6.0000000   6.0000000   6.0000000   6.0000000   6.0000000   6.0000000   6.0000000

  Atom        31          32          33          34          35          36          37          38          39          40
 IAtWgt=          12          12          12          12          12          12          12          12          12          12
 AtmWgt=  12.0000000  12.0000000  12.0000000  12.0000000  12.0000000  12.0000000  12.0000000  12.0000000  12.0000000  12.0000000
 NucSpn=           0           0           0           0           0           0           0           0           0           0
 AtZEff=  -0.0000000  -0.0000000  -0.0000000  -0.0000000  -0.0000000  -0.0000000  -0.0000000  -0.0000000  -0.0000000  -0.0000000
 NQMom=    0.0000000   0.0000000   0.0000000   0.0000000   0.0000000   0.0000000   0.0000000   0.0000000   0.0000000   0.0000000
 NMagM=    0.0000000   0.0000000   0.0000000   0.0000000   0.0000000   0.0000000   0.0000000   0.0000000   0.0000000   0.0000000
 AtZNuc=   6.0000000   6.0000000   6.0000000   6.0000000   6.0000000   6.0000000   6.0000000   6.0000000   6.0000000   6.0000000

  Atom        41          42          43          44          45          46          47          48          49          50
 IAtWgt=          12          12          12          12          12          12          12          12          12          12
 AtmWgt=  12.0000000  12.0000000  12.0000000  12.0000000  12.0000000  12.0000000  12.0000000  12.0000000  12.0000000  12.0000000
 NucSpn=           0           0           0           0           0           0           0           0           0           0
 AtZEff=  -0.0000000  -0.0000000  -0.0000000  -0.0000000  -0.0000000  -0.0000000  -0.0000000  -0.0000000  -0.0000000  -0.0000000
 NQMom=    0.0000000   0.0000000   0.0000000   0.0000000   0.0000000   0.0000000   0.0000000   0.0000000   0.0000000   0.0000000
 NMagM=    0.0000000   0.0000000   0.0000000   0.0000000   0.0000000   0.0000000   0.0000000   0.0000000   0.0000000   0.0000000
 AtZNuc=   6.0000000   6.0000000   6.0000000   6.0000000   6.0000000   6.0000000   6.0000000   6.0000000   6.0000000   6.0000000

  Atom        51          52          53          54          55          56          57          58          59          60
 IAtWgt=          12          12          12          12          12          12          12          12          12          12
 AtmWgt=  12.0000000  12.0000000  12.0000000  12.0000000  12.0000000  12.0000000  12.0000000  12.0000000  12.0000000  12.0000000
 NucSpn=           0           0           0           0           0           0           0           0           0           0
 AtZEff=  -0.0000000  -0.0000000  -0.0000000  -0.0000000  -0.0000000  -0.0000000  -0.0000000  -0.0000000  -0.0000000  -0.0000000
 NQMom=    0.0000000   0.0000000   0.0000000   0.0000000   0.0000000   0.0000000   0.0000000   0.0000000   0.0000000   0.0000000
 NMagM=    0.0000000   0.0000000   0.0000000   0.0000000   0.0000000   0.0000000   0.0000000   0.0000000   0.0000000   0.0000000
 AtZNuc=   6.0000000   6.0000000   6.0000000   6.0000000   6.0000000   6.0000000   6.0000000   6.0000000   6.0000000   6.0000000

  Atom        61          62          63          64          65          66          67          68          69          70
 IAtWgt=          12          12          12          12          12          12          12          12          12          12
 AtmWgt=  12.0000000  12.0000000  12.0000000  12.0000000  12.0000000  12.0000000  12.0000000  12.0000000  12.0000000  12.0000000
 NucSpn=           0           0           0           0           0           0           0           0           0           0
 AtZEff=  -0.0000000  -0.0000000  -0.0000000  -0.0000000  -0.0000000  -0.0000000  -0.0000000  -0.0000000  -0.0000000  -0.0000000
 NQMom=    0.0000000   0.0000000   0.0000000   0.0000000   0.0000000   0.0000000   0.0000000   0.0000000   0.0000000   0.0000000
 NMagM=    0.0000000   0.0000000   0.0000000   0.0000000   0.0000000   0.0000000   0.0000000   0.0000000   0.0000000   0.0000000
 AtZNuc=   6.0000000   6.0000000   6.0000000   6.0000000   6.0000000   6.0000000   6.0000000   6.0000000   6.0000000   6.0000000

  Atom        71          72          73          74          75          76          77          78          79          80
 IAtWgt=          12          12          12          12          12          12          12          12          12          12
 AtmWgt=  12.0000000  12.0000000  12.0000000  12.0000000  12.0000000  12.0000000  12.0000000  12.0000000  12.0000000  12.0000000
 NucSpn=           0           0           0           0           0           0           0           0           0           0
 AtZEff=  -0.0000000  -0.0000000  -0.0000000  -0.0000000  -0.0000000  -0.0000000  -0.0000000  -0.0000000  -0.0000000  -0.0000000
 NQMom=    0.0000000   0.0000000   0.0000000   0.0000000   0.0000000   0.0000000   0.0000000   0.0000000   0.0000000   0.0000000
 NMagM=    0.0000000   0.0000000   0.0000000   0.0000000   0.0000000   0.0000000   0.0000000   0.0000000   0.0000000   0.0000000
 AtZNuc=   6.0000000   6.0000000   6.0000000   6.0000000   6.0000000   6.0000000   6.0000000   6.0000000   6.0000000   6.0000000

  Atom        81          82          83          84          85          86          87          88          89          90
 IAtWgt=          12          12          12          12           1           1           1           1           1           1
 AtmWgt=  12.0000000  12.0000000  12.0000000  12.0000000   1.0078250   1.0078250   1.0078250   1.0078250   1.0078250   1.0078250
 NucSpn=           0           0           0           0           1           1           1           1           1           1
 AtZEff=  -0.0000000  -0.0000000  -0.0000000  -0.0000000  -0.0000000  -0.0000000  -0.0000000  -0.0000000  -0.0000000  -0.0000000
 NQMom=    0.0000000   0.0000000   0.0000000   0.0000000   0.0000000   0.0000000   0.0000000   0.0000000   0.0000000   0.0000000
 NMagM=    0.0000000   0.0000000   0.0000000   0.0000000   2.7928460   2.7928460   2.7928460   2.7928460   2.7928460   2.7928460
 AtZNuc=   6.0000000   6.0000000   6.0000000   6.0000000   1.0000000   1.0000000   1.0000000   1.0000000   1.0000000   1.0000000

  Atom        91          92          93          94          95          96          97          98          99         100
 IAtWgt=           1           1           1           1           1           1           1           1           1           1
 AtmWgt=   1.0078250   1.0078250   1.0078250   1.0078250   1.0078250   1.0078250   1.0078250   1.0078250   1.0078250   1.0078250
 NucSpn=           1           1           1           1           1           1           1           1           1           1
 AtZEff=  -0.0000000  -0.0000000  -0.0000000  -0.0000000  -0.0000000  -0.0000000  -0.0000000  -0.0000000  -0.0000000  -0.0000000
 NQMom=    0.0000000   0.0000000   0.0000000   0.0000000   0.0000000   0.0000000   0.0000000   0.0000000   0.0000000   0.0000000
 NMagM=    2.7928460   2.7928460   2.7928460   2.7928460   2.7928460   2.7928460   2.7928460   2.7928460   2.7928460   2.7928460
 AtZNuc=   1.0000000   1.0000000   1.0000000   1.0000000   1.0000000   1.0000000   1.0000000   1.0000000   1.0000000   1.0000000

  Atom       101         102         103         104         105         106         107         108
 IAtWgt=           1           1           1           1           1           1           1           1
 AtmWgt=   1.0078250   1.0078250   1.0078250   1.0078250   1.0078250   1.0078250   1.0078250   1.0078250
 NucSpn=           1           1           1           1           1           1           1           1
 AtZEff=  -0.0000000  -0.0000000  -0.0000000  -0.0000000  -0.0000000  -0.0000000  -0.0000000  -0.0000000
 NQMom=    0.0000000   0.0000000   0.0000000   0.0000000   0.0000000   0.0000000   0.0000000   0.0000000
 NMagM=    2.7928460   2.7928460   2.7928460   2.7928460   2.7928460   2.7928460   2.7928460   2.7928460
 AtZNuc=   1.0000000   1.0000000   1.0000000   1.0000000   1.0000000   1.0000000   1.0000000   1.0000000
 Leave Link  101 at Thu Jul  7 01:47:05 2022, MaxMem= 26843545600 cpu:               4.7 elap:               0.2
 (Enter /sob/g16/l202.exe)
 Stoichiometry    C84H24
 Framework group  D6H[SGH(C12),X(C72H24)]
 Deg. of freedom    14
 Full point group                 D6H     NOp  24
 Largest Abelian subgroup         D2H     NOp   8
 Largest concise Abelian subgroup D2H     NOp   8
                         Standard orientation:                         
 ---------------------------------------------------------------------
 Center     Atomic      Atomic             Coordinates (Angstroms)
 Number     Number       Type             X           Y           Z
 ---------------------------------------------------------------------
      1          6           0        1.381326    3.795453    3.663843
      2          6           0        1.381326    3.795453   -1.221157
      3          6           0        0.701733    3.977871    0.000000
      4          6           0        1.381326    3.795453    1.221157
      5          6           0       -0.701891    3.977908    2.441843
      6          6           0        0.701891    3.977908    2.441843
      7          6           0       -1.381326    3.795453    3.663843
      8          6           0        1.381326    3.795453   -3.663843
      9          6           0       -0.701891    3.977908   -2.441843
     10          6           0        0.701891    3.977908   -2.441843
     11          6           0       -1.381326    3.795453   -1.221157
     12          6           0       -0.701733    3.977871   -0.000000
     13          6           0       -2.596296    3.093990    1.221157
     14          6           0       -1.381326    3.795453    1.221157
     15          6           0       -3.094024    2.596810    2.441843
     16          6           0       -2.596296    3.093990    3.663843
     17          6           0       -2.596296    3.093990   -3.663843
     18          6           0       -1.381326    3.795453   -3.663843
     19          6           0       -3.094024    2.596810   -2.441843
     20          6           0       -2.596296    3.093990   -1.221157
     21          6           0       -3.795804    1.381217   -0.000000
     22          6           0       -3.094071    2.596654    0.000000
     23          6           0       -3.977621    0.701463    1.221157
     24          6           0       -3.795915    1.381099    2.441843
     25          6           0       -3.977621   -0.701463    3.663843
     26          6           0       -3.977621    0.701463    3.663843
     27          6           0       -3.977621    0.701463   -3.663843
     28          6           0       -3.795915    1.381099   -2.441843
     29          6           0       -3.977621   -0.701463   -1.221157
     30          6           0       -3.977621    0.701463   -1.221157
     31          6           0       -3.795804   -1.381217    0.000000
     32          6           0       -3.977621   -0.701463    1.221157
     33          6           0       -3.094024   -2.596810    2.441843
     34          6           0       -3.795915   -1.381099    2.441843
     35          6           0       -2.596296   -3.093990    3.663843
     36          6           0       -3.977621   -0.701463   -3.663843
     37          6           0       -3.094024   -2.596810   -2.441843
     38          6           0       -3.795915   -1.381099   -2.441843
     39          6           0       -2.596296   -3.093990   -1.221157
     40          6           0       -3.094071   -2.596654   -0.000000
     41          6           0       -1.381326   -3.795453    1.221157
     42          6           0       -2.596296   -3.093990    1.221157
     43          6           0       -0.701891   -3.977908    2.441843
     44          6           0       -1.381326   -3.795453    3.663843
     45          6           0       -1.381326   -3.795453   -3.663843
     46          6           0       -2.596296   -3.093990   -3.663843
     47          6           0       -0.701891   -3.977908   -2.441843
     48          6           0       -1.381326   -3.795453   -1.221157
     49          6           0        0.701733   -3.977871   -0.000000
     50          6           0       -0.701733   -3.977871    0.000000
     51          6           0        1.381326   -3.795453    1.221157
     52          6           0        0.701891   -3.977908    2.441843
     53          6           0        2.596296   -3.093990    3.663843
     54          6           0        1.381326   -3.795453    3.663843
     55          6           0        1.381326   -3.795453   -3.663843
     56          6           0        0.701891   -3.977908   -2.441843
     57          6           0        2.596296   -3.093990   -1.221157
     58          6           0        1.381326   -3.795453   -1.221157
     59          6           0        3.094071   -2.596654    0.000000
     60          6           0        2.596296   -3.093990    1.221157
     61          6           0        3.795915   -1.381099    2.441843
     62          6           0        3.094024   -2.596810    2.441843
     63          6           0        3.977621   -0.701463    3.663843
     64          6           0        2.596296   -3.093990   -3.663843
     65          6           0        3.795915   -1.381099   -2.441843
     66          6           0        3.094024   -2.596810   -2.441843
     67          6           0        3.977621   -0.701463   -1.221157
     68          6           0        3.795804   -1.381217   -0.000000
     69          6           0        3.977621    0.701463    1.221157
     70          6           0        3.977621   -0.701463    1.221157
     71          6           0        3.795915    1.381099    2.441843
     72          6           0        3.977621    0.701463    3.663843
     73          6           0        3.977621    0.701463   -3.663843
     74          6           0        3.977621   -0.701463   -3.663843
     75          6           0        3.795915    1.381099   -2.441843
     76          6           0        3.977621    0.701463   -1.221157
     77          6           0        3.094071    2.596654   -0.000000
     78          6           0        3.795804    1.381217    0.000000
     79          6           0        2.596296    3.093990    1.221157
     80          6           0        3.094024    2.596810    2.441843
     81          6           0        2.596296    3.093990    3.663843
     82          6           0        2.596296    3.093990   -3.663843
     83          6           0        3.094024    2.596810   -2.441843
     84          6           0        2.596296    3.093990   -1.221157
     85          1           0        0.977248    4.184668    4.574959
     86          1           0       -0.977248    4.184668    4.574959
     87          1           0        0.977248    4.184668   -4.574959
     88          1           0       -3.135405    2.938656    4.574959
     89          1           0       -3.135405    2.938656   -4.574959
     90          1           0       -0.977248    4.184668   -4.574959
     91          1           0       -4.112653   -1.246012    4.574959
     92          1           0       -4.112653    1.246012    4.574959
     93          1           0       -4.112653    1.246012   -4.574959
     94          1           0       -3.135405   -2.938656    4.574959
     95          1           0       -4.112653   -1.246012   -4.574959
     96          1           0       -0.977248   -4.184668    4.574959
     97          1           0       -0.977248   -4.184668   -4.574959
     98          1           0       -3.135405   -2.938656   -4.574959
     99          1           0        3.135405   -2.938656    4.574959
    100          1           0        0.977248   -4.184668    4.574959
    101          1           0        0.977248   -4.184668   -4.574959
    102          1           0        4.112653   -1.246012    4.574959
    103          1           0        3.135405   -2.938656   -4.574959
    104          1           0        4.112653    1.246012    4.574959
    105          1           0        4.112653    1.246012   -4.574959
    106          1           0        4.112653   -1.246012   -4.574959
    107          1           0        3.135405    2.938656    4.574959
    108          1           0        3.135405    2.938656   -4.574959
 ---------------------------------------------------------------------
 Rotational constants (GHZ):           0.0337709           0.0337709           0.0299185
 Leave Link  202 at Thu Jul  7 01:47:05 2022, MaxMem= 26843545600 cpu:               0.5 elap:               0.0
 (Enter /sob/g16/l301.exe)
 Standard basis: 6-31G(d) (6D, 7F)
 Ernie: Thresh=  0.10000D-02 Tol=  0.10000D-05 Strict=F.
 There are   174 symmetry adapted cartesian basis functions of AG  symmetry.
 There are   174 symmetry adapted cartesian basis functions of B1G symmetry.
 There are   153 symmetry adapted cartesian basis functions of B2G symmetry.
 There are   153 symmetry adapted cartesian basis functions of B3G symmetry.
 There are   153 symmetry adapted cartesian basis functions of AU  symmetry.
 There are   153 symmetry adapted cartesian basis functions of B1U symmetry.
 There are   174 symmetry adapted cartesian basis functions of B2U symmetry.
 There are   174 symmetry adapted cartesian basis functions of B3U symmetry.
 There are   174 symmetry adapted basis functions of AG  symmetry.
 There are   174 symmetry adapted basis functions of B1G symmetry.
 There are   153 symmetry adapted basis functions of B2G symmetry.
 There are   153 symmetry adapted basis functions of B3G symmetry.
 There are   153 symmetry adapted basis functions of AU  symmetry.
 There are   153 symmetry adapted basis functions of B1U symmetry.
 There are   174 symmetry adapted basis functions of B2U symmetry.
 There are   174 symmetry adapted basis functions of B3U symmetry.
  1308 basis functions,  2448 primitive gaussians,  1308 cartesian basis functions
   264 alpha electrons      264 beta electrons
       nuclear repulsion energy     14048.1314254963 Hartrees.
 IExCor= 1009 DFT=T Ex+Corr=PBE1PBE ExCW=0 ScaHFX=  0.250000
 ScaDFX=  0.750000  0.750000  1.000000  1.000000 ScalE2=  1.000000  1.000000
 IRadAn=      4 IRanWt=     -1 IRanGd=            0 ICorTp=0 IEmpDi=  4
 NAtoms=  108 NActive=  108 NUniq=    5 SFac= 4.00D+00 NAtFMM=   60 NAOKFM=T Big=F
 Integral buffers will be    131072 words long.
 Regular integral format.
 Two-electron integral symmetry is turned on.
 Leave Link  301 at Thu Jul  7 01:47:05 2022, MaxMem= 26843545600 cpu:               1.9 elap:               0.1
 (Enter /sob/g16/l302.exe)
 NPDir=0 NMtPBC=     1 NCelOv=     1 NCel=       1 NClECP=     1 NCelD=      1
         NCelK=      1 NCelE2=     1 NClLst=     1 CellRange=     0.0.
 One-electron integrals computed using PRISM.
 One-electron integral symmetry used in STVInt
 NBasis=  1308 RedAO= T EigKep=  5.98D-05  NBF=   174   174   153   153   153   153   174   174
 NBsUse=  1308 1.00D-06 EigRej= -1.00D+00 NBFU=   174   174   153   153   153   153   174   174
 Precomputing XC quadrature grid using
 IXCGrd= 4 IRadAn=           4 IRanWt=          -1 IRanGd=           0 AccXCQ= 0.00D+00.
 Generated NRdTot=       0 NPtTot=           0 NUsed=           0 NTot=          32
 NSgBfM=  1054  1018  1032  1032  1054 MxSgAt=   108 MxSgA2=   108.
 Leave Link  302 at Thu Jul  7 01:47:08 2022, MaxMem= 26843545600 cpu:             102.9 elap:               2.9
 (Enter /sob/g16/l303.exe)
 DipDrv:  MaxL=1.
 Leave Link  303 at Thu Jul  7 01:47:08 2022, MaxMem= 26843545600 cpu:               6.0 elap:               0.2
 (Enter /sob/g16/l308.exe)
 Leave Link  308 at Thu Jul  7 01:47:08 2022, MaxMem= 26843545600 cpu:              10.9 elap:               0.4
 (Enter /sob/g16/l401.exe)
 ExpMin= 1.61D-01 ExpMax= 3.05D+03 ExpMxC= 4.57D+02 IAcc=2 IRadAn=         4 AccDes= 0.00D+00
 Harris functional with IExCor= 1009 and IRadAn=       4 diagonalized for initial guess.
 HarFok:  IExCor= 1009 AccDes= 0.00D+00 IRadAn=         4 IDoV= 1 UseB2=F ITyADJ=14
 ICtDFT=  3500011 ScaDFX=  1.000000  1.000000  1.000000  1.000000
 FoFCou: FMM=F IPFlag=           0 FMFlag=      100000 FMFlg1=        2000
         NFxFlg=           0 DoJE=T BraDBF=F KetDBF=T FulRan=T
         wScrn=  0.000000 ICntrl=       500 IOpCl=  0 I1Cent=   200000004 NGrid=           0
         NMat0=    1 NMatS0=      1 NMatT0=    0 NMatD0=    1 NMtDS0=    0 NMtDT0=    0
 Petite list used in FoFCou.
 Harris En= -3212.48397060534    
 JPrj=0 DoOrth=F DoCkMO=F.
 Initial guess orbital symmetries:
       Occupied  (B1G) (B2U) (E2U) (E2U) (E2G) (E2G) (E1G) (E1G)
                 (E1U) (E1U) (A2U) (A1G) (A2G) (A1U) (E1U) (E1U)
                 (E1G) (E1G) (E2G) (E2G) (E2U) (E2U) (B1U) (B2G)
                 (A1G) (E1U) (E1U) (E2G) (E2G) (A2U) (B2U) (E1G)
                 (E1G) (E2U) (E2U) (B1U) (B1G) (B2G) (E2G) (E2G)
                 (E2U) (E2U) (E1U) (E1U) (A1G) (B1U) (E2G) (E2G)
                 (E1U) (E1U) (A2G) (E1G) (E1G) (A2U) (A1U) (E1G)
                 (E1G) (A1G) (E2U) (E2U) (E1U) (E1U) (E2G) (E2G)
                 (B2U) (A2G) (E1U) (E1U) (B2G) (B1G) (E2G) (E2G)
                 (E2U) (E2U) (E1G) (E1G) (A1U) (B1U) (B2U) (E2G)
                 (E2G) (E1U) (E1U) (A2G) (A1G) (E1U) (E1U) (E2G)
                 (E2G) (A2U) (E1G) (E1G) (B2U) (E2U) (E2U) (B1U)
                 (A1G) (B1G) (E1U) (E1U) (B2G) (E2G) (E2G) (E2G)
                 (E2G) (E2U) (E2U) (B2U) (B1U) (A2U) (E1U) (E1U)
                 (E1G) (E1G) (E2U) (E2U) (E2G) (E2G) (B1G) (E1G)
                 (E1G) (A2G) (E1U) (E1U) (A1G) (A1U) (A1G) (B2G)
                 (A2U) (E2U) (E2U) (E1U) (E1U) (E2G) (E2G) (A2G)
                 (B2U) (E1U) (E1U) (E1G) (E1G) (E1G) (E1G) (B1U)
                 (A1U) (E2G) (E2G) (E2U) (E2U) (A1G) (A2U) (E2G)
                 (E2G) (B1G) (E1G) (E1G) (E1U) (E1U) (E1U) (E1U)
                 (B2G) (A2U) (E2U) (E2U) (A2G) (A1G) (B2U) (E2U)
                 (E2U) (E1U) (E1U) (E2G) (E2G) (E1G) (E1G) (B1U)
                 (E2G) (E2G) (E1G) (E1G) (A2U) (B1G) (B2U) (E2U)
                 (E2U) (B2G) (B1U) (A1G) (E1G) (E1G) (A1G) (E1U)
                 (E1U) (E2G) (E2G) (E2U) (E2U) (A1U) (E1U) (E1U)
                 (B1G) (B2U) (E2G) (E2G) (B1U) (A2U) (B1G) (E1G)
                 (E1G) (E2U) (E2U) (E2G) (E2G) (B2G) (E1U) (E1U)
                 (E2G) (E2G) (E2U) (E2U) (A2G) (A2U) (E1G) (E1G)
                 (B1U) (B2U) (E2U) (E2U) (E1U) (E1U) (A1G) (E1G)
                 (E1G) (A1U) (E1U) (E1U) (A1G) (B2G) (B1G) (E2G)
                 (E2G) (E2G) (E2G) (B1U) (E2U) (E2U) (B2U) (A2U)
                 (E1G) (E1G) (E1U) (E1U) (E2U) (E2U) (B1G) (E2G)
                 (E2G) (E1G) (E1G) (A2G) (E1U) (E1U) (A1G) (A1U)
       Virtual   (A2U) (A2G) (E1U) (E1U) (A1G) (B2G) (E1G) (E1G)
                 (E2G) (E2G) (E2U) (E2U) (B2U) (E1U) (E1U) (E1G)
                 (E1G) (B1U) (A1U) (E2U) (E2U) (E2G) (E2G) (E2G)
                 (E2G) (B1G) (B2G) (E1U) (E1U) (A2G) (E2U) (E2U)
                 (B2U) (B1U) (E1G) (E1G) (A1G) (E1U) (E1U) (E2G)
                 (E2G) (A2U) (A1U) (A2G) (E1U) (E1U) (E1G) (E1G)
                 (E2G) (E2G) (E2U) (E2U) (B2G) (B1U) (A1G) (A2U)
                 (B2U) (E2G) (E2G) (E1U) (E1U) (B2G) (E2U) (E2U)
                 (B2U) (E1G) (E1G) (B1U) (E2G) (E2G) (E1U) (E1U)
                 (B1G) (A2U) (E1G) (E1G) (E2U) (E2U) (A1G) (E2G)
                 (E2G) (E2G) (E2G) (E2U) (E2U) (B1U) (E1G) (E1G)
                 (B2G) (B1G) (E1U) (E1U) (E2U) (E2U) (A2G) (B2U)
                 (E1G) (E1G) (E1U) (E1U) (E2G) (E2G) (A1U) (A1G)
                 (E1U) (E1U) (E2U) (E2U) (A2U) (A2G) (E2G) (E2G)
                 (B2U) (A1U) (B1G) (A2G) (E1G) (E1G) (B2G) (E1U)
                 (E1U) (A1U) (E2U) (E2U) (B1U) (E1U) (E1U) (E1G)
                 (E1G) (B1G) (A2G) (E1G) (E1G) (E2G) (E2G) (E2U)
                 (E2U) (E1U) (E1U) (E2G) (E2G) (A2G) (A1U) (E2G)
                 (E2G) (A1G) (B2U) (E2U) (E2U) (B2G) (A2U) (E1G)
                 (E1G) (A1G) (E1U) (E1U) (B1U) (A2U) (E1U) (E1U)
                 (A1U) (E1G) (E1G) (E1G) (E1G) (E2U) (E2U) (E2G)
                 (E2G) (A1G) (A1G) (E1U) (E1U) (A2G) (B2U) (E1U)
                 (E1U) (B1G) (B1U) (B2U) (E1U) (E1U) (E2U) (E2U)
                 (E2G) (E2G) (A2U) (E2G) (E2G) (B2G) (E2G) (E2G)
                 (A2U) (E1G) (E1G) (A1G) (B1G) (B1U) (E1U) (E1U)
                 (E1U) (E1U) (E2U) (E2U) (B2G) (E2G) (E2G) (E1G)
                 (E1G) (A1G) (E2U) (E2U) (E2G) (E2G) (E2U) (E2U)
                 (A2U) (E1G) (E1G) (E1U) (E1U) (E2G) (E2G) (A2G)
                 (B2U) (E1G) (E1G) (B1U) (B2U) (E2G) (E2G) (E2U)
                 (E2U) (B2G) (B1G) (E1U) (E1U) (A1G) (B1U) (B2U)
                 (B2G) (E2U) (E2U) (B1U) (A2U) (B1G) (E1G) (E1G)
                 (E2G) (E2G) (A1U) (E2U) (E2U) (B2U) (B2G) (E1U)
                 (E1U) (E2G) (E2G) (E1G) (E1G) (A1U) (E2U) (E2U)
                 (A1G) (E2G) (E2G) (B1G) (A2G) (E1U) (E1U) (E2G)
                 (E2G) (B2U) (E1G) (E1G) (E1U) (E1U) (A2G) (E1U)
                 (E1U) (E2U) (E2U) (A1U) (A2G) (E1U) (E1U) (E1G)
                 (E1G) (E2G) (E2G) (A1G) (B1U) (A2U) (E2U) (E2U)
                 (B2G) (E1G) (E1G) (B1U) (E2G) (E2G) (A1U) (B2U)
                 (E2U) (E2U) (B1U) (E2G) (E2G) (B1G) (E1G) (E1G)
                 (B2G) (E1U) (E1U) (E1U) (E1U) (E2G) (E2G) (A2U)
                 (A2G) (E2U) (E2U) (A1G) (E2G) (E2G) (B1G) (B2U)
                 (B1U) (E1U) (E1U) (E1G) (E1G) (B1G) (A1U) (A2G)
                 (A2U) (E2U) (E2U) (E1U) (E1U) (E2U) (E2U) (A1G)
                 (E1G) (E1G) (B2G) (E2U) (E2U) (E2G) (E2G) (E1G)
                 (E1G) (E1U) (E1U) (A1U) (B1U) (E2G) (E2G) (E1G)
                 (E1G) (B2G) (E2U) (E2U) (A1G) (B2U) (A2U) (E1G)
                 (E1G) (B1G) (E2G) (E2G) (A2U) (A1G) (E1U) (E1U)
                 (E2U) (E2U) (E1U) (E1U) (B1U) (E2G) (E2G) (B1G)
                 (E2U) (E2U) (E2G) (E2G) (B2U) (E1G) (E1G) (A1G)
                 (E1U) (E1U) (E1U) (E1U) (A2G) (E1G) (E1G) (B2U)
                 (E1U) (E1U) (E2G) (E2G) (B2G) (A2U) (A1G) (E2U)
                 (E2U) (B1U) (E2G) (E2G) (A2G) (A1U) (B1U) (E1G)
                 (E1G) (E2G) (E2G) (E1U) (E1U) (A2G) (E2U) (E2U)
                 (B1G) (E1G) (E1G) (A2U) (E1U) (E1U) (A1U) (A1G)
                 (A2U) (E1G) (E1G) (B2G) (E2U) (E2U) (E1U) (E1U)
                 (E2U) (E2U) (B2U) (E1G) (E1G) (A2G) (E2G) (E2G)
                 (B2G) (A1U) (A2U) (A2G) (A1U) (E2G) (E2G) (E1G)
                 (E1G) (E1U) (E1U) (B1G) (E2U) (E2U) (B1U) (A2G)
                 (E1U) (E1U) (E1G) (E1G) (E2G) (E2G) (E2U) (E2U)
                 (E1G) (E1G) (B2U) (E2U) (E2U) (B1G) (E1U) (E1U)
                 (B1U) (B2G) (E2G) (E2G) (B2U) (B1G) (B2G) (A1U)
                 (E2U) (E2U) (E2G) (E2G) (E1G) (E1G) (A2G) (E2U)
                 (E2U) (A1U) (E1U) (E1U) (B1U) (A1G) (E2G) (E2G)
                 (E1G) (E1G) (E2U) (E2U) (B1G) (A2G) (A2U) (E1G)
                 (E1G) (A1U) (B2U) (B2G) (E1U) (E1U) (A1G) (E2G)
                 (E2G) (E1U) (E1U) (E2G) (E2G) (B1G) (A2U) (E1U)
                 (E1U) (B1U) (E2U) (E2U) (B2U) (A1G) (E1G) (E1G)
                 (E1U) (E1U) (B1G) (A2G) (E2U) (E2U) (E2G) (E2G)
                 (E2U) (E2U) (B2U) (E1G) (E1G) (A2U) (E2G) (E2G)
                 (E2U) (E2U) (A1G) (B2G) (E2G) (E2G) (E1U) (E1U)
                 (E1G) (E1G) (B1U) (B2U) (E1G) (E1G) (E2G) (E2G)
                 (A1U) (E1U) (E1U) (E2U) (E2U) (E1U) (E1U) (A1G)
                 (B1G) (A2U) (E1G) (E1G) (E1U) (E1U) (B1U) (A1U)
                 (B2G) (A1G) (E1G) (E1G) (A2U) (E2G) (E2G) (E2U)
                 (E2U) (A1G) (E2G) (E2G) (E1U) (E1U) (E2U) (E2U)
                 (A2G) (E1G) (E1G) (E1U) (E1U) (B1U) (B1G) (B2U)
                 (B2G) (A2U) (E2G) (E2G) (E1G) (E1G) (A2G) (E2G)
                 (E2G) (A1G) (E2U) (E2U) (B1U) (E2U) (E2U) (A2U)
                 (B1G) (E1U) (E1U) (B2U) (E1G) (E1G) (E1U) (E1U)
                 (E2G) (E2G) (A1G) (A1U) (B2G) (B2U) (E2G) (E2G)
                 (E2U) (E2U) (B1U) (E2G) (E2G) (B2G) (E1G) (E1G)
                 (B2U) (B1G) (E1U) (E1U) (E2U) (E2U) (A1G) (E1U)
                 (E1U) (B1G) (E2G) (E2G) (E2U) (E2U) (E1G) (E1G)
                 (A1U) (B2U) (A2U) (E1U) (E1U) (B1U) (E2U) (E2U)
                 (E2G) (E2G) (A2G) (E1G) (E1G) (A2G) (E2G) (E2G)
                 (A1U) (E1U) (E1U) (E1G) (E1G) (A1G) (A2U) (B2U)
                 (A2G) (B2G) (E2U) (E2U) (E2G) (E2G) (E1U) (E1U)
                 (E1G) (E1G) (A2U) (A1U) (E1U) (E1U) (E2U) (E2U)
                 (B1G) (B2G) (E1G) (E1G) (B1U) (E2G) (E2G) (A1G)
                 (E1G) (E1G) (E2U) (E2U) (A2U) (E1U) (E1U) (B1U)
                 (E2G) (E2G) (B2U) (B1G) (A2G) (E2U) (E2U) (A1G)
                 (E2G) (E2G) (E1U) (E1U) (A1U) (E1G) (E1G) (E1U)
                 (E1U) (A1G) (A2G) (A2U) (E1G) (E1G) (B2U) (E2G)
                 (E2G) (E1U) (E1U) (E2U) (E2U) (A1U) (A2G) (E1U)
                 (E1U) (B2G) (E1G) (E1G) (E2G) (E2G) (E2U) (E2U)
                 (E1G) (E1G) (B1U) (E1U) (E1U) (B1G) (A2U) (A2G)
                 (E2U) (E2U) (B2G) (E2G) (E2G) (E1G) (E1G) (A1U)
                 (E1U) (E1U) (B1U) (E2U) (E2U) (A2G) (B1G) (A1G)
                 (A1U) (E1G) (E1G) (E2G) (E2G) (B2U) (E1U) (E1U)
                 (B1U) (E2G) (E2G) (E2U) (E2U) (A2U) (B1G) (E2G)
                 (E2G) (E2U) (E2U) (B2G) (E1U) (E1U) (E1G) (E1G)
                 (B2U) (E2U) (E2U) (E2G) (E2G) (A1G) (E1G) (E1G)
                 (E2G) (E2G) (B1U) (E1U) (E1U) (B2U) (A2G) (A2U)
                 (E1U) (E1U) (B2G) (E1G) (E1G) (B2G) (E2U) (E2U)
                 (E2G) (E2G) (A1U) (B1U) (B1G) (B2U) (E2U) (E2U)
                 (E1U) (E1U) (E1G) (E1G) (B2G) (E1G) (E1G) (A1U)
                 (E2U) (E2U) (A2G) (E2G) (E2G) (A2G) (E1U) (E1U)
                 (A1U) (B1G) (B2G) (B1U) (E2U) (E2U) (A2G) (A1G)
                 (A2U) (E1U) (E1U) (A1G) (E2G) (E2G) (E1G) (E1G)
                 (E2U) (E2U) (E2G) (E2G) (B1U) (E1G) (E1G) (E1U)
                 (E1U) (A1U) (A2G) (E1G) (E1G) (E2U) (E2U) (E1U)
                 (E1U) (A1U) (E1U) (E1U) (B1G) (A2G) (E2G) (E2G)
                 (E2U) (E2U) (B2G) (B2U) (E1G) (E1G) (E2G) (E2G)
                 (A1U) (E1U) (E1U) (E1G) (E1G) (E2G) (E2G) (B2U)
                 (A2G) (B2G) (A1U) (E2U) (E2U) (B1U) (E2U) (E2U)
                 (B2U) (B1G) (E2G) (E2G) (E1U) (E1U) (A2G) (E1G)
                 (E1G) (E2G) (E2G) (B1U) (A1U) (E2U) (E2U) (B2U)
                 (B2G) (E2G) (E2G) (B1U) (B1G) (E1U) (E1U) (E1G)
                 (E1G) (E1U) (E1U) (A1U) (A2G) (E2G) (E2G) (E2U)
                 (E2U) (A2G) (E1U) (E1U) (E1G) (E1G) (A2G) (A1U)
                 (A2U) (A1G) (E1G) (E1G) (E1U) (E1U) (E2G) (E2G)
                 (E2U) (E2U) (A1G) (B2U) (B1G) (E1U) (E1U) (B1U)
                 (B2G) (E2G) (E2G) (A2U) (B2U) (E1G) (E1G) (B1U)
                 (E2G) (E2G) (E2U) (E2U) (E2U) (E2U) (B1G) (E2G)
                 (E2G) (A1G) (E1U) (E1U) (E1G) (E1G) (E1U) (E1U)
                 (A2U) (A2G) (E2G) (E2G) (A1U) (E1U) (E1U) (E1G)
                 (E1G) (B2G) (E2U) (E2U) (A1G) (B1U) (A2G) (B2U)
                 (E2U) (E2U) (E1G) (E1G) (E1U) (E1U) (A1U) (E2G)
                 (E2G) (B2G) (B1G) (E2G) (E2G) (E1U) (E1U) (A2G)
                 (E2U) (E2U) (B2U) (B1U) (E1G) (E1G) (A1U) (E2G)
                 (E2G) (E1U) (E1U) (A2G)
 The electronic state of the initial guess is 1-A1G.
 Leave Link  401 at Thu Jul  7 01:47:11 2022, MaxMem= 26843545600 cpu:             106.7 elap:               3.0
 (Enter /sob/g16/l502.exe)
 Integral symmetry usage will be decided dynamically.
 Closed shell SCF:
 Using DIIS extrapolation, IDIIS=  1040.
 NGot= 26843545600 LenX= 26840034290 LenY= 26838322118
 Requested convergence on RMS density matrix=1.00D-08 within 128 cycles.
 Requested convergence on MAX density matrix=1.00D-06.
 Requested convergence on             energy=1.00D-06.
 No special actions if energy rises.
 Fock matrices will be formed incrementally for  20 cycles.
 Integral accuracy reduced to 1.0D-05 until final iterations.

 Cycle   1  Pass 0  IDiag  1:
 FoFJK:  IHMeth= 1 ICntrl=       0 DoSepK=F KAlg= 0 I1Cent=           0 FoldK=F
 IRaf= 540000000 NMat=       1 IRICut=       1 DoRegI=T DoRafI=F ISym2E= 1 IDoP0=0 IntGTp=1.
 FoFCou: FMM=F IPFlag=           0 FMFlag=      100000 FMFlg1=        2000
         NFxFlg=           0 DoJE=F BraDBF=F KetDBF=F FulRan=T
         wScrn=  0.000000 ICntrl=         0 IOpCl=  0 I1Cent=           0 NGrid=           0
         NMat0=    1 NMatS0=      1 NMatT0=    0 NMatD0=    1 NMtDS0=    0 NMtDT0=    0
 Petite list used in FoFCou.
 E= -3210.93911699376    
 DIIS: error= 3.20D-02 at cycle   1 NSaved=   1.
 NSaved= 1 IEnMin= 1 EnMin= -3210.93911699376     IErMin= 1 ErrMin= 3.20D-02
 ErrMax= 3.20D-02  0.00D+00 EMaxC= 1.00D-01 BMatC= 9.96D-01 BMatP= 9.96D-01
 IDIUse=3 WtCom= 6.80D-01 WtEn= 3.20D-01
 Coeff-Com:  0.100D+01
 Coeff-En:   0.100D+01
 Coeff:      0.100D+01
 Gap=     0.082 Goal=   None    Shift=    0.000
 GapD=    0.082 DampG=0.500 DampE=0.500 DampFc=0.2500 IDamp=-1.
 Damping current iteration by 2.50D-01
 RMSDP=2.59D-03 MaxDP=9.90D-02              OVMax= 1.03D-01

 Cycle   2  Pass 0  IDiag  1:
 RMSU=  5.86D-04    CP:  9.72D-01
 E= -3211.26468895773     Delta-E=       -0.325571963975 Rises=F Damp=T
 DIIS: error= 2.00D-02 at cycle   2 NSaved=   2.
 NSaved= 2 IEnMin= 2 EnMin= -3211.26468895773     IErMin= 2 ErrMin= 2.00D-02
 ErrMax= 2.00D-02  0.00D+00 EMaxC= 1.00D-01 BMatC= 3.95D-01 BMatP= 9.96D-01
 IDIUse=3 WtCom= 8.00D-01 WtEn= 2.00D-01
 Coeff-Com: -0.141D+01 0.241D+01
 Coeff-En:   0.000D+00 0.100D+01
 Coeff:     -0.113D+01 0.213D+01
 Gap=     0.085 Goal=   None    Shift=    0.000
 RMSDP=1.38D-03 MaxDP=6.36D-02 DE=-3.26D-01 OVMax= 5.32D-02

 Cycle   3  Pass 0  IDiag  1:
 RMSU=  6.87D-04    CP:  9.12D-01  2.76D+00
 E= -3211.91075546350     Delta-E=       -0.646066505764 Rises=F Damp=F
 DIIS: error= 3.34D-03 at cycle   3 NSaved=   3.
 NSaved= 3 IEnMin= 3 EnMin= -3211.91075546350     IErMin= 3 ErrMin= 3.34D-03
 ErrMax= 3.34D-03  0.00D+00 EMaxC= 1.00D-01 BMatC= 1.75D-02 BMatP= 3.95D-01
 IDIUse=3 WtCom= 9.67D-01 WtEn= 3.34D-02
 Coeff-Com: -0.422D+00 0.691D+00 0.731D+00
 Coeff-En:   0.000D+00 0.000D+00 0.100D+01
 Coeff:     -0.408D+00 0.668D+00 0.740D+00
 Gap=     0.084 Goal=   None    Shift=    0.000
 RMSDP=2.76D-04 MaxDP=1.15D-02 DE=-6.46D-01 OVMax= 4.08D-02

 Cycle   4  Pass 0  IDiag  1:
 RMSU=  2.46D-04    CP:  9.09D-01  2.86D+00  8.44D-01
 E= -3211.91878131359     Delta-E=       -0.008025850097 Rises=F Damp=F
 DIIS: error= 3.76D-03 at cycle   4 NSaved=   4.
 NSaved= 4 IEnMin= 4 EnMin= -3211.91878131359     IErMin= 3 ErrMin= 3.34D-03
 ErrMax= 3.76D-03  0.00D+00 EMaxC= 1.00D-01 BMatC= 6.97D-03 BMatP= 1.75D-02
 IDIUse=3 WtCom= 9.62D-01 WtEn= 3.76D-02
 Coeff-Com: -0.121D+00 0.193D+00 0.398D+00 0.530D+00
 Coeff-En:   0.000D+00 0.000D+00 0.328D+00 0.672D+00
 Coeff:     -0.116D+00 0.186D+00 0.395D+00 0.535D+00
 Gap=     0.084 Goal=   None    Shift=    0.000
 RMSDP=1.45D-04 MaxDP=5.90D-03 DE=-8.03D-03 OVMax= 3.82D-02

 Cycle   5  Pass 0  IDiag  1:
 RMSU=  1.20D-04    CP:  9.09D-01  2.86D+00  8.63D-01  6.77D-01
 E= -3211.92333783635     Delta-E=       -0.004556522759 Rises=F Damp=F
 DIIS: error= 2.48D-03 at cycle   5 NSaved=   5.
 NSaved= 5 IEnMin= 5 EnMin= -3211.92333783635     IErMin= 5 ErrMin= 2.48D-03
 ErrMax= 2.48D-03  0.00D+00 EMaxC= 1.00D-01 BMatC= 2.99D-03 BMatP= 6.97D-03
 IDIUse=3 WtCom= 9.75D-01 WtEn= 2.48D-02
 Coeff-Com: -0.313D-01 0.477D-01 0.187D+00 0.399D+00 0.398D+00
 Coeff-En:   0.000D+00 0.000D+00 0.000D+00 0.332D+00 0.668D+00
 Coeff:     -0.305D-01 0.465D-01 0.182D+00 0.398D+00 0.404D+00
 Gap=     0.084 Goal=   None    Shift=    0.000
 RMSDP=6.67D-05 MaxDP=2.97D-03 DE=-4.56D-03 OVMax= 1.48D-02

 Cycle   6  Pass 0  IDiag  1:
 RMSU=  3.27D-05    CP:  9.10D-01  2.84D+00  8.77D-01  7.08D-01  5.37D-01
 E= -3211.92665534808     Delta-E=       -0.003317511731 Rises=F Damp=F
 DIIS: error= 1.51D-04 at cycle   6 NSaved=   6.
 NSaved= 6 IEnMin= 6 EnMin= -3211.92665534808     IErMin= 6 ErrMin= 1.51D-04
 ErrMax= 1.51D-04  0.00D+00 EMaxC= 1.00D-01 BMatC= 5.33D-05 BMatP= 2.99D-03
 IDIUse=3 WtCom= 9.98D-01 WtEn= 1.51D-03
 Coeff-Com: -0.558D-02 0.781D-02 0.590D-01 0.161D+00 0.193D+00 0.586D+00
 Coeff-En:   0.000D+00 0.000D+00 0.000D+00 0.000D+00 0.000D+00 0.100D+01
 Coeff:     -0.557D-02 0.780D-02 0.589D-01 0.160D+00 0.192D+00 0.586D+00
 Gap=     0.084 Goal=   None    Shift=    0.000
 RMSDP=1.53D-05 MaxDP=5.13D-04 DE=-3.32D-03 OVMax= 1.29D-03

 Cycle   7  Pass 0  IDiag  1:
 RMSU=  1.38D-05    CP:  9.10D-01  2.84D+00  8.72D-01  6.90D-01  5.30D-01
                    CP:  9.33D-01
 E= -3211.92670514856     Delta-E=       -0.000049800481 Rises=F Damp=F
 DIIS: error= 6.25D-05 at cycle   7 NSaved=   7.
 NSaved= 7 IEnMin= 7 EnMin= -3211.92670514856     IErMin= 7 ErrMin= 6.25D-05
 ErrMax= 6.25D-05  0.00D+00 EMaxC= 1.00D-01 BMatC= 4.19D-06 BMatP= 5.33D-05
 IDIUse=1 WtCom= 1.00D+00 WtEn= 0.00D+00
 Coeff-Com: -0.195D-02 0.261D-02 0.242D-01 0.707D-01 0.859D-01 0.326D+00
 Coeff-Com:  0.492D+00
 Coeff:     -0.195D-02 0.261D-02 0.242D-01 0.707D-01 0.859D-01 0.326D+00
 Coeff:      0.492D+00
 Gap=     0.084 Goal=   None    Shift=    0.000
 RMSDP=8.44D-06 MaxDP=2.64D-04 DE=-4.98D-05 OVMax= 4.49D-04

 Initial convergence to 1.0D-05 achieved.  Increase integral accuracy.
 Cycle   8  Pass 1  IDiag  1:
 E= -3211.92794557511     Delta-E=       -0.001240426544 Rises=F Damp=F
 DIIS: error= 1.46D-03 at cycle   1 NSaved=   1.
 NSaved= 1 IEnMin= 1 EnMin= -3211.92794557511     IErMin= 1 ErrMin= 1.46D-03
 ErrMax= 1.46D-03  0.00D+00 EMaxC= 1.00D-01 BMatC= 2.42D-04 BMatP= 2.42D-04
 IDIUse=3 WtCom= 9.85D-01 WtEn= 1.46D-02
 Coeff-Com:  0.100D+01
 Coeff-En:   0.100D+01
 Coeff:      0.100D+01
 Gap=     0.084 Goal=   None    Shift=    0.000
 RMSDP=8.44D-06 MaxDP=2.64D-04 DE=-1.24D-03 OVMax= 1.99D-03

 Cycle   9  Pass 1  IDiag  1:
 RMSU=  4.61D-04    CP:  9.95D-01
 E= -3211.92811831089     Delta-E=       -0.000172735781 Rises=F Damp=F
 DIIS: error= 1.59D-05 at cycle   2 NSaved=   2.
 NSaved= 2 IEnMin= 2 EnMin= -3211.92811831089     IErMin= 2 ErrMin= 1.59D-05
 ErrMax= 1.59D-05  0.00D+00 EMaxC= 1.00D-01 BMatC= 1.37D-07 BMatP= 2.42D-04
 IDIUse=1 WtCom= 1.00D+00 WtEn= 0.00D+00
 Coeff-Com: -0.850D-02 0.101D+01
 Coeff:     -0.850D-02 0.101D+01
 Gap=     0.084 Goal=   None    Shift=    0.000
 RMSDP=5.28D-06 MaxDP=1.00D-04 DE=-1.73D-04 OVMax= 1.98D-04

 Cycle  10  Pass 1  IDiag  1:
 RMSU=  1.72D-06    CP:  9.95D-01  1.01D+00
 E= -3211.92811816059     Delta-E=        0.000000150299 Rises=F Damp=F
 DIIS: error= 1.68D-05 at cycle   3 NSaved=   3.
 NSaved= 3 IEnMin= 2 EnMin= -3211.92811831089     IErMin= 2 ErrMin= 1.59D-05
 ErrMax= 1.68D-05  0.00D+00 EMaxC= 1.00D-01 BMatC= 2.71D-07 BMatP= 1.37D-07
 IDIUse=1 WtCom= 1.00D+00 WtEn= 0.00D+00
 Coeff-Com: -0.561D-02 0.613D+00 0.392D+00
 Coeff:     -0.561D-02 0.613D+00 0.392D+00
 Gap=     0.084 Goal=   None    Shift=    0.000
 RMSDP=6.62D-07 MaxDP=2.23D-05 DE= 1.50D-07 OVMax= 1.31D-04

 Cycle  11  Pass 1  IDiag  1:
 RMSU=  5.73D-07    CP:  9.95D-01  1.01D+00  8.08D-01
 E= -3211.92811844852     Delta-E=       -0.000000287931 Rises=F Damp=F
 DIIS: error= 6.51D-06 at cycle   4 NSaved=   4.
 NSaved= 4 IEnMin= 4 EnMin= -3211.92811844852     IErMin= 4 ErrMin= 6.51D-06
 ErrMax= 6.51D-06  0.00D+00 EMaxC= 1.00D-01 BMatC= 2.22D-08 BMatP= 1.37D-07
 IDIUse=1 WtCom= 1.00D+00 WtEn= 0.00D+00
 Coeff-Com: -0.286D-02 0.305D+00 0.252D+00 0.446D+00
 Coeff:     -0.286D-02 0.305D+00 0.252D+00 0.446D+00
 Gap=     0.084 Goal=   None    Shift=    0.000
 RMSDP=2.11D-07 MaxDP=1.13D-05 DE=-2.88D-07 OVMax= 4.98D-05

 Cycle  12  Pass 1  IDiag  1:
 RMSU=  1.76D-07    CP:  9.95D-01  1.01D+00  8.18D-01  8.01D-01
 E= -3211.92811847012     Delta-E=       -0.000000021595 Rises=F Damp=F
 DIIS: error= 1.93D-06 at cycle   5 NSaved=   5.
 NSaved= 5 IEnMin= 5 EnMin= -3211.92811847012     IErMin= 5 ErrMin= 1.93D-06
 ErrMax= 1.93D-06  0.00D+00 EMaxC= 1.00D-01 BMatC= 2.28D-09 BMatP= 2.22D-08
 IDIUse=1 WtCom= 1.00D+00 WtEn= 0.00D+00
 Coeff-Com: -0.444D-03 0.443D-01 0.652D-01 0.263D+00 0.628D+00
 Coeff:     -0.444D-03 0.443D-01 0.652D-01 0.263D+00 0.628D+00
 Gap=     0.084 Goal=   None    Shift=    0.000
 DSYEVD-2 returned Info=         307 IAlg= 4 N=   153 NDim=  1308 NE2=    20518593 trying  DSYEV.
 RMSDP=5.89D-08 MaxDP=3.35D-06 DE=-2.16D-08 OVMax= 1.58D-05

 Cycle  13  Pass 1  IDiag  1:
 RMSU=  3.22D-08    CP:  9.95D-01  1.01D+00  8.25D-01  8.38D-01  7.62D-01
 E= -3211.92811847181     Delta-E=       -0.000000001695 Rises=F Damp=F
 DIIS: error= 3.68D-07 at cycle   6 NSaved=   6.
 NSaved= 6 IEnMin= 6 EnMin= -3211.92811847181     IErMin= 6 ErrMin= 3.68D-07
 ErrMax= 3.68D-07  0.00D+00 EMaxC= 1.00D-01 BMatC= 1.63D-10 BMatP= 2.28D-09
 IDIUse=1 WtCom= 1.00D+00 WtEn= 0.00D+00
 Coeff-Com:  0.231D-04-0.395D-02 0.107D-01 0.863D-01 0.310D+00 0.597D+00
 Coeff:      0.231D-04-0.395D-02 0.107D-01 0.863D-01 0.310D+00 0.597D+00
 Gap=     0.084 Goal=   None    Shift=    0.000
 RMSDP=1.85D-08 MaxDP=7.24D-07 DE=-1.70D-09 OVMax= 3.52D-06

 Cycle  14  Pass 1  IDiag  1:
 RMSU=  1.26D-08    CP:  9.95D-01  1.01D+00  8.28D-01  8.35D-01  7.60D-01
                    CP:  6.37D-01
 E= -3211.92811847252     Delta-E=       -0.000000000713 Rises=F Damp=F
 DIIS: error= 7.24D-08 at cycle   7 NSaved=   7.
 NSaved= 7 IEnMin= 7 EnMin= -3211.92811847252     IErMin= 7 ErrMin= 7.24D-08
 ErrMax= 7.24D-08  0.00D+00 EMaxC= 1.00D-01 BMatC= 7.16D-12 BMatP= 1.63D-10
 IDIUse=1 WtCom= 1.00D+00 WtEn= 0.00D+00
 Coeff-Com:  0.403D-04-0.478D-02-0.115D-03 0.214D-01 0.949D-01 0.258D+00
 Coeff-Com:  0.631D+00
 Coeff:      0.403D-04-0.478D-02-0.115D-03 0.214D-01 0.949D-01 0.258D+00
 Coeff:      0.631D+00
 Gap=     0.084 Goal=   None    Shift=    0.000
 RMSDP=4.37D-09 MaxDP=1.70D-07 DE=-7.13D-10 OVMax= 5.08D-07

 SCF Done:  E(RPBE1PBE) =  -3211.92811847     A.U. after   14 cycles
            NFock= 14  Conv=0.44D-08     -V/T= 2.0075
 KE= 3.187973966520D+03 PE=-3.554418320983D+04 EE= 1.509614969934D+04
 Leave Link  502 at Thu Jul  7 01:47:53 2022, MaxMem= 26843545600 cpu:            1490.9 elap:              41.6
 (Enter /sob/g16/l801.exe)
 DoSCS=F DFT=T ScalE2(SS,OS)=  1.000000  1.000000
 ExpMin= 1.61D-01 ExpMax= 3.05D+03 ExpMxC= 4.57D+02 IAcc=3 IRadAn=         5 AccDes= 0.00D+00
 HarFok:  IExCor=  205 AccDes= 0.00D+00 IRadAn=         5 IDoV=-2 UseB2=F ITyADJ=14
 ICtDFT= 12500011 ScaDFX=  1.000000  1.000000  1.000000  1.000000
 GSVD:  LWork=       -7728 too small for GESVD, short by       36540 words or       36540 for optimal perf.
 Largest valence mixing into a core orbital is  6.84D-05
 Largest core mixing into a valence orbital is  1.70D-05
 Range of M.O.s used for correlation:    85  1308
 NBasis=  1308 NAE=   264 NBE=   264 NFC=    84 NFV=     0
 NROrb=   1224 NOA=   180 NOB=   180 NVA=  1044 NVB=  1044

 **** Warning!!: The largest alpha MO coefficient is  0.13337247D+02


 **** Warning!!: The smallest alpha delta epsilon is  0.84314812D-01

 Leave Link  801 at Thu Jul  7 01:47:53 2022, MaxMem= 26843545600 cpu:               9.9 elap:               0.3
 (Enter /sob/g16/l914.exe)
 RHF ground state
 Two-electron integrals replicated using symmetry.
 MDV= 26843545600 DFT=T DoStab=F Mixed=T DoRPA=T DoScal=F NonHer=T
 Making orbital integer symmetry assigments:
 Orbital symmetries:
       Occupied  (A1G) (E1U) (E1U) (E2G) (E2G) (B1U) (B2U) (E2G)
                 (E2G) (E1U) (E1U) (A2G) (A2U) (E1G) (E1G) (E2U)
                 (E2U) (B1G) (A1G) (E1U) (E1U) (E2G) (E2G) (B2U)
                 (B2G) (E2U) (E2U) (E1G) (E1G) (B1U) (A1U) (E2G)
                 (E2G) (E1U) (E1U) (A2G) (A2U) (A1G) (E1G) (E1G)
                 (E1U) (E1U) (E2U) (E2U) (E2G) (E2G) (B2G) (B1U)
                 (B1G) (B2U) (E2U) (E2U) (E2G) (E2G) (E1G) (E1G)
                 (A1U) (E1U) (E1U) (A2G) (B1G) (B2U) (E2U) (E2U)
                 (E2G) (E2G) (E1G) (E1G) (E1U) (E1U) (A1G) (A2U)
                 (A2G) (A1U) (E1U) (E1U) (E1G) (E1G) (E2G) (E2G)
                 (E2U) (E2U) (B1U) (B2G) (A1G) (E1U) (E1U) (E2G)
                 (E2G) (A2U) (E1G) (E1G) (B2U) (B1U) (E2U) (E2U)
                 (A1G) (B1G) (E1U) (E1U) (B2G) (E2G) (E2G) (E2G)
                 (E2G) (E2U) (E2U) (B2U) (B1U) (A2U) (E1U) (E1U)
                 (E1G) (E1G) (E2U) (E2U) (E2G) (E2G) (B1G) (E1G)
                 (E1G) (A2G) (E1U) (E1U) (A1G) (A1U) (A1G) (B2G)
                 (A2U) (E1U) (E1U) (E2U) (E2U) (E2G) (E2G) (A2G)
                 (B2U) (E1U) (E1U) (E1G) (E1G) (E1G) (E1G) (B1U)
                 (A1U) (E2G) (E2G) (E2U) (E2U) (A2U) (A1G) (B1G)
                 (E2G) (E2G) (E1G) (E1G) (E1U) (E1U) (E1U) (E1U)
                 (B2G) (A2G) (E2U) (E2U) (A1G) (A2U) (E1U) (E1U)
                 (E2U) (E2U) (B2U) (B1U) (E1G) (E1G) (E2G) (E2G)
                 (E2G) (E2G) (A1G) (E1U) (E1U) (E1G) (E1G) (A2U)
                 (B2U) (E1G) (E1G) (E2G) (E2G) (B1G) (A1G) (B2G)
                 (E2U) (E2U) (A1U) (B1U) (A2U) (E2U) (E2U) (B1U)
                 (E1U) (E1U) (E1G) (E1G) (B2U) (B1G) (E2G) (E2G)
                 (E2U) (E2U) (E2G) (E2G) (B1G) (B2G) (B1U) (E1U)
                 (E1U) (B2U) (E2G) (E2G) (E2U) (E2U) (A2G) (A2U)
                 (A1G) (E1G) (E1G) (E2U) (E2U) (E1U) (E1U) (B2G)
                 (B1G) (E1U) (E1U) (E2G) (E2G) (E1G) (E1G) (E2G)
                 (E2G) (A1U) (A1G) (B1U) (E2U) (E2U) (B2U) (A2U)
                 (E1G) (E1G) (E1U) (E1U) (E2U) (E2U) (B1G) (E2G)
                 (E2G) (A2G) (E1G) (E1G) (E1U) (E1U) (A1G) (A1U)
       Virtual   (A2U) (A2G) (E1U) (E1U) (A1G) (B2G) (E1G) (E1G)
                 (E2G) (E2G) (E2U) (E2U) (B2U) (E1U) (E1U) (B1U)
                 (E1G) (E1G) (A1U) (E2U) (E2U) (E2G) (E2G) (B1G)
                 (E2G) (E2G) (B2G) (E1U) (E1U) (A1G) (A2U) (E1U)
                 (E1U) (E1G) (E1G) (E2U) (E2U) (A2G) (E2G) (E2G)
                 (B1U) (B2U) (E2U) (E2U) (B2G) (B1U) (E1G) (E1G)
                 (E2G) (E2G) (E1U) (E1U) (A1U) (A2G) (B2U) (B1G)
                 (A1G) (E2G) (E2G) (B2G) (E2U) (E2U) (E1U) (E1U)
                 (B2U) (A2U) (E2G) (E2G) (E2U) (E2U) (B1U) (E1G)
                 (E1G) (E1G) (E1G) (A2U) (E1U) (E1U) (A1G) (E2G)
                 (E2G) (E2U) (E2U) (E1U) (E1U) (E1G) (E1G) (E2G)
                 (E2G) (B1U) (A2G) (B2G) (A1U) (B1G) (B2U) (E1G)
                 (E1G) (E2U) (E2U) (E2G) (E2G) (E1U) (E1U) (E1U)
                 (E1U) (A1G) (A2G) (E2G) (E2G) (E2U) (E2U) (B2U)
                 (A1U) (A2U) (B1G) (A2G) (E1G) (E1G) (E1U) (E1U)
                 (B2G) (E2U) (E2U) (A1U) (B1U) (E1G) (E1G) (E1U)
                 (E1U) (B1G) (E2G) (E2G) (A2G) (E1G) (E1G) (E2U)
                 (E2U) (A1G) (E1U) (E1U) (E2G) (E2G) (A2U) (A2G)
                 (E1U) (E1U) (A2U) (A1G) (E1G) (E1G) (A1G) (B2U)
                 (E2G) (E2G) (A1U) (E1U) (E1U) (E2U) (E2U) (E2G)
                 (E2G) (B2U) (B2G) (A1G) (B1U) (E1G) (E1G) (E1U)
                 (E1U) (E1G) (E1G) (E2U) (E2U) (E1U) (E1U) (A2U)
                 (E2G) (E2G) (B1U) (E1G) (E1G) (A1U) (E2G) (E2G)
                 (B1G) (E2U) (E2U) (E1U) (E1U) (B2G) (E2U) (E2U)
                 (A1G) (A2U) (E2G) (E2G) (E1U) (E1U) (B1G) (A2G)
                 (A2U) (E2U) (E2U) (E1G) (E1G) (E1U) (E1U) (A1G)
                 (B2U) (E1G) (E1G) (E2G) (E2G) (B1U) (E2G) (E2G)
                 (E2G) (E2G) (B2G) (B2U) (A1G) (E2U) (E2U) (E1U)
                 (E1U) (B1U) (B2G) (E2U) (E2U) (A2G) (E1U) (E1U)
                 (E1G) (E1G) (B2U) (E2G) (E2G) (A2U) (B1U) (B1G)
                 (B2U) (B1U) (B2G) (E2U) (E2U) (B1G) (B2U) (E2G)
                 (E2G) (E2U) (E2U) (B2G) (E1U) (E1U) (E1G) (E1G)
                 (A1U) (A1G) (E2G) (E2G) (E1G) (E1G) (E2U) (E2U)
                 (B1G) (A1U) (E1U) (E1U) (A2G) (E2G) (E2G) (E2G)
                 (E2G) (A2G) (B2U) (E1U) (E1U) (E1G) (E1G) (E2U)
                 (E2U) (A1U) (E2G) (E2G) (B1U) (E1U) (E1U) (A2U)
                 (E1G) (E1G) (E2U) (E2U) (A1G) (B1U) (E1U) (E1U)
                 (B2G) (B2U) (E2G) (E2G) (E2U) (E2U) (B1G) (E1G)
                 (E1G) (B1U) (E2G) (E2G) (B2G) (A2G) (E1G) (E1G)
                 (E1U) (E1U) (E2G) (E2G) (A2U) (E1U) (E1U) (E2U)
                 (E2U) (A1G) (A1U) (A2G) (E2G) (E2G) (E1U) (E1U)
                 (B1G) (B2U) (E1G) (E1G) (B1U) (E2U) (E2U) (A2U)
                 (E1G) (E1G) (B1G) (A1G) (E1U) (E1U) (A1U) (A2G)
                 (E2U) (E2U) (E2G) (E2G) (B2G) (A1U) (E1U) (E1U)
                 (E2U) (E2U) (E1G) (E1G) (B1U) (E2G) (E2G) (E1G)
                 (E1G) (A1G) (B2G) (E2U) (E2U) (B2U) (A2U) (A2U)
                 (E1G) (E1G) (E2G) (E2G) (A1G) (E1U) (E1U) (B1G)
                 (E1U) (E1U) (E2U) (E2U) (B1G) (B1U) (E2U) (E2U)
                 (E2G) (E2G) (A2G) (E2G) (E2G) (E1U) (E1U) (E1G)
                 (E1G) (B2U) (A1G) (E1U) (E1U) (E1G) (E1G) (E1U)
                 (E1U) (B2G) (E2U) (E2U) (E2G) (E2G) (B2U) (A1G)
                 (A1U) (A2G) (A2U) (B1U) (E2G) (E2G) (B1U) (E1G)
                 (E1G) (E2G) (E2G) (A2G) (E1G) (E1G) (E1U) (E1U)
                 (B1G) (E2U) (E2U) (E1U) (E1U) (A1U) (A2U) (B2G)
                 (E1U) (E1U) (B2U) (A2U) (E2U) (E2U) (E1G) (E1G)
                 (A1G) (E2G) (E2G) (E1G) (E1G) (A1U) (E2U) (E2U)
                 (A2G) (A2G) (A1U) (A2U) (B2G) (E2G) (E2G) (B1G)
                 (E1U) (E1U) (E2U) (E2U) (B1U) (E1G) (E1G) (A2G)
                 (E2G) (E2G) (E1G) (E1G) (E1U) (E1U) (E2U) (E2U)
                 (B2U) (E1U) (E1U) (E1G) (E1G) (E2U) (E2U) (B1G)
                 (B1U) (E2G) (E2G) (B2G) (A1U) (B2U) (B2G) (B1G)
                 (E2U) (E2U) (E2G) (E2G) (E1G) (E1G) (A2G) (E1U)
                 (E1U) (A1U) (E2U) (E2U) (B1U) (E2G) (E2G) (A1G)
                 (E1G) (E1G) (A2G) (E2U) (E2U) (B1G) (B2G) (E1G)
                 (E1G) (A1U) (B2U) (A2U) (E1U) (E1U) (B1G) (A1G)
                 (E2G) (E2G) (E1U) (E1U) (A2U) (E2G) (E2G) (B1U)
                 (E1U) (E1U) (B2U) (E2U) (E2U) (E1G) (E1G) (A1G)
                 (E1U) (E1U) (E2U) (E2U) (E2G) (E2G) (A2G) (E2U)
                 (E2U) (B1G) (B2U) (E2G) (E2G) (E1G) (E1G) (A2U)
                 (E2U) (E2U) (A1G) (B2G) (E2G) (E2G) (E1G) (E1G)
                 (E1U) (E1U) (B1U) (A1U) (E1G) (E1G) (B2U) (E2G)
                 (E2G) (E1U) (E1U) (E2U) (E2U) (E1U) (E1U) (B1G)
                 (B1U) (A1U) (B2G) (A1G) (E1G) (E1G) (A2U) (E1U)
                 (E1U) (E2G) (E2G) (A1G) (E1G) (E1G) (A2G) (E2U)
                 (E2U) (A2U) (E1U) (E1U) (E2G) (E2G) (A1G) (E2U)
                 (E2U) (A2G) (E1G) (E1G) (E1U) (E1U) (B2U) (B2G)
                 (B1U) (B1G) (E1G) (E1G) (A2U) (A1G) (E2G) (E2G)
                 (E2G) (E2G) (E2U) (E2U) (B1U) (E2U) (E2U) (A2U)
                 (E1U) (E1U) (B2U) (E1U) (E1U) (B1G) (E2G) (E2G)
                 (A1U) (E1G) (E1G) (B2G) (E2G) (E2G) (A1G) (B1U)
                 (B2U) (E2U) (E2U) (E2G) (E2G) (B2U) (B1G) (E1G)
                 (E1G) (A1U) (B2G) (E2U) (E2U) (E1U) (E1U) (E1U)
                 (E1U) (A1G) (E2U) (E2U) (E1G) (E1G) (E2G) (E2G)
                 (B1G) (B2U) (A2U) (E1U) (E1U) (E2G) (E2G) (B1U)
                 (E2U) (E2U) (E1G) (E1G) (A2G) (A2G) (E2G) (E2G)
                 (E1U) (E1U) (A1U) (E1G) (E1G) (A1G) (B2U) (A2G)
                 (A2U) (B2G) (E2G) (E2G) (E2U) (E2U) (E1U) (E1U)
                 (E1G) (E1G) (A2U) (E1U) (E1U) (E2U) (E2U) (B1G)
                 (B2G) (A1U) (E1G) (E1G) (B1U) (E2G) (E2G) (E2U)
                 (E2U) (A1G) (E1G) (E1G) (A2U) (E1U) (E1U) (B1U)
                 (E2G) (E2G) (A2G) (B2U) (A1G) (E2U) (E2U) (B1G)
                 (E2G) (E2G) (E1U) (E1U) (A1U) (E1G) (E1G) (E1U)
                 (E1U) (A1G) (A2G) (A2U) (E1G) (E1G) (B2U) (E2G)
                 (E2G) (E1U) (E1U) (E2U) (E2U) (A2G) (A1U) (E1U)
                 (E1U) (B2G) (E1G) (E1G) (E2U) (E2U) (B1U) (E2G)
                 (E2G) (E1G) (E1G) (B1G) (E1U) (E1U) (A2G) (E2G)
                 (E2G) (E2U) (E2U) (A2U) (A1U) (B2G) (E1U) (E1U)
                 (E1G) (E1G) (B1U) (A2G) (E2U) (E2U) (B1G) (A1U)
                 (E1G) (E1G) (A1G) (E2G) (E2G) (B2U) (B1U) (E1U)
                 (E1U) (E2G) (E2G) (E2U) (E2U) (A2U) (B1G) (E2G)
                 (E2G) (E2U) (E2U) (E1U) (E1U) (B2G) (B2U) (E1G)
                 (E1G) (E2G) (E2G) (E2U) (E2U) (B1U) (E1G) (E1G)
                 (A2G) (E2G) (E2G) (E1U) (E1U) (A1G) (B2U) (B2G)
                 (E1U) (E1U) (A2U) (E1G) (E1G) (E2U) (E2U) (B2G)
                 (E2G) (E2G) (B1G) (B1U) (B2U) (A1U) (E1G) (E1G)
                 (E1U) (E1U) (E2U) (E2U) (B2G) (A2G) (A1U) (E2G)
                 (E2G) (E2U) (E2U) (E1G) (E1G) (A2G) (A1U) (E1U)
                 (E1U) (A2G) (B1U) (B1G) (E2U) (E2U) (B2G) (A1G)
                 (A2U) (A1G) (E2G) (E2G) (E1U) (E1U) (E1G) (E1G)
                 (E2U) (E2U) (E1U) (E1U) (E2G) (E2G) (B1U) (A2G)
                 (E1G) (E1G) (E1U) (E1U) (A1U) (E1G) (E1G) (E2U)
                 (E2U) (A1U) (A2G) (B1G) (E1U) (E1U) (E2G) (E2G)
                 (E2U) (E2U) (B2U) (E2G) (E2G) (B2G) (E1G) (E1G)
                 (A1U) (E1G) (E1G) (E1U) (E1U) (E2G) (E2G) (A2G)
                 (A1U) (B2U) (B1U) (B2G) (E2U) (E2U) (B2U) (E2U)
                 (E2U) (E2G) (E2G) (B1G) (E1U) (E1U) (E1G) (E1G)
                 (A2G) (E2G) (E2G) (A1U) (B1U) (E2U) (E2U) (B2U)
                 (B2G) (E1U) (E1U) (E2G) (E2G) (B1U) (B1G) (E1G)
                 (E1G) (A2G) (E1U) (E1U) (A1U) (E2G) (E2G) (A2G)
                 (E2U) (E2U) (E1U) (E1U) (E1G) (E1G) (A2G) (A1U)
                 (A2U) (A1G) (E1G) (E1G) (E1U) (E1U) (E2G) (E2G)
                 (E2U) (E2U) (A1G) (B2U) (E1U) (E1U) (B1G) (B1U)
                 (B2G) (E2G) (E2G) (A2U) (B2U) (E1G) (E1G) (B1U)
                 (E2G) (E2G) (E2U) (E2U) (E2U) (E2U) (B1G) (E2G)
                 (E2G) (A1G) (E1U) (E1U) (E1G) (E1G) (E1U) (E1U)
                 (A2U) (A2G) (E2G) (E2G) (A1U) (E1U) (E1U) (E1G)
                 (E1G) (B2G) (E2U) (E2U) (A1G) (B1U) (A2G) (B2U)
                 (E2U) (E2U) (E1G) (E1G) (E1U) (E1U) (A1U) (E2G)
                 (E2G) (B2G) (B1G) (E2G) (E2G) (E1U) (E1U) (A2G)
                 (E2U) (E2U) (B2U) (B1U) (E1G) (E1G) (A1U) (E2G)
                 (E2G) (E1U) (E1U) (A2G)
   800 initial guesses have been made.
 Convergence on wavefunction:    0.001000000000000
 Davidson Disk Diagonalization:  ConvIn= 1.00D-03 SkipCon=T Conv= 1.00D-03.
 Max sub-space: 12000 roots to seek:   800 dimension of matrix:       375840
 Iteration     1 Dimension   800 NMult     0 NNew    800
 CISAX will form   180 AO SS matrices at one time.
 NMat=   180 NSing=   180 JSym2X=-1.
 FoFJK:  IHMeth= 1 ICntrl=       0 DoSepK=F KAlg= 0 I1Cent=           0 FoldK=F
 IRaf= 540000000 NMat=     360 IRICut=     450 DoRegI=T DoRafI=T ISym2E=-1 IDoP0=0 IntGTp=1.
 FoFCou: FMM=F IPFlag=           0 FMFlag=      100000 FMFlg1=        2000
         NFxFlg=           0 DoJE=F BraDBF=F KetDBF=F FulRan=T
         wScrn=  0.000000 ICntrl=         0 IOpCl=  0 I1Cent=           0 NGrid=           0
         NMat0=  360 NMatS0=    180 NMatT0=    0 NMatD0=  360 NMtDS0=    0 NMtDT0=    0
 Petite list used in FoFCou.
 Raff kept on since  44.94% of shell-pairs survive, threshold=   0.20 IRatSp=45.
 NMat=   180 NSing=   180 JSym2X=-1.
 NMat=   180 NSing=   180 JSym2X=-1.
 NMat=   180 NSing=   180 JSym2X=-1.
 NMat=    80 NSing=    80 JSym2X=-1.
 New state      3 was old state      5
 New state      5 was old state      6
 New state      6 was old state      3
 New state      7 was old state      9
 New state      8 was old state      7
 New state      9 was old state      8
 New state     11 was old state     12
 New state     12 was old state     11
 New state     13 was old state     17
 New state     14 was old state     18
 New state     15 was old state     19
 New state     16 was old state     15
 New state     17 was old state     16
 New state     18 was old state     21
 New state     19 was old state     20
 New state     20 was old state     22
 New state     21 was old state     25
 New state     22 was old state     26
 New state     23 was old state     24
 New state     24 was old state     23
 New state     25 was old state     32
 New state     26 was old state     33
 New state     27 was old state     28
 New state     28 was old state     29
 New state     29 was old state     27
 New state     30 was old state     13
 New state     31 was old state     14
 New state     32 was old state     40
 New state     33 was old state     39
 New state     34 was old state     36
 New state     36 was old state     48
 New state     37 was old state     47
 New state     38 was old state     37
 New state     39 was old state     38
 New state     40 was old state     34
 New state     41 was old state     31
 New state     42 was old state     30
 New state     43 was old state     42
 New state     45 was old state     51
 New state     46 was old state     50
 New state     47 was old state     49
 New state     48 was old state     41
 New state     49 was old state     43
 New state     50 was old state     58
 New state     51 was old state     57
 New state     52 was old state     46
 New state     53 was old state     45
 New state     54 was old state     52
 New state     55 was old state     67
 New state     56 was old state     54
 New state     57 was old state     62
 New state     58 was old state     61
 New state     59 was old state     71
 New state     60 was old state     70
 New state     61 was old state     72
 New state     62 was old state     55
 New state     63 was old state     56
 New state     65 was old state     63
 New state     66 was old state     65
 New state     67 was old state     66
 New state     68 was old state     59
 New state     69 was old state     60
 New state     70 was old state     74
 New state     71 was old state     73
 New state     72 was old state     68
 New state     73 was old state     69
 New state     74 was old state     77
 New state     75 was old state     81
 New state     76 was old state     80
 New state     77 was old state     79
 New state     79 was old state     85
 New state     80 was old state     75
 New state     81 was old state     76
 New state     82 was old state     53
 New state     83 was old state     82
 New state     84 was old state     98
 New state     85 was old state     99
 New state     86 was old state     89
 New state     87 was old state     88
 New state     88 was old state     87
 New state     89 was old state     83
 New state     90 was old state    101
 New state     91 was old state    100
 New state     92 was old state     94
 New state     93 was old state     95
 New state     94 was old state     97
 New state     95 was old state     96
 New state     96 was old state     91
 New state     97 was old state    108
 New state     98 was old state    102
 New state     99 was old state    103
 New state    100 was old state    104
 Excitation Energies [eV] at current iteration:
 Root      1 :     1.667784276245131
 Root      2 :     2.069807084138124
 Root      3 :     2.413216067719739
 Root      4 :     2.413216098727082
 Root      5 :     2.661305022236565
 Root      6 :     2.702753376988142
 Root      7 :     2.709649665580486
 Root      8 :     2.884759166552206
 Root      9 :     2.884759353542892
 Root     10 :     2.901709936894788
 Root     11 :     2.975834582136604
 Root     12 :     2.975834605596165
 Root     13 :     3.015181619204579
 Root     14 :     3.093116933449929
 Root     15 :     3.093117926330902
 Root     16 :     3.100195551344391
 Root     17 :     3.100196138766564
 Root     18 :     3.150069695266416
 Root     19 :     3.150069893669442
 Root     20 :     3.237909052273795
 Root     21 :     3.342538283388428
 Root     22 :     3.349255255720115
 Root     23 :     3.361325967206930
 Root     24 :     3.361328795317629
 Root     25 :     3.470844129735643
 Root     26 :     3.470844266601692
 Root     27 :     3.489051127462430
 Root     28 :     3.543274498966208
 Root     29 :     3.543274706924710
 Root     30 :     3.605712187216702
 Root     31 :     3.605712385092530
 Root     32 :     3.647356693095355
 Root     33 :     3.647357371398678
 Root     34 :     3.662428776506650
 Root     35 :     3.662431314893647
 Root     36 :     3.697449913212496
 Root     37 :     3.697451855427508
 Root     38 :     3.741794634609195
 Root     39 :     3.741796524325116
 Root     40 :     3.746768188287521
 Root     41 :     3.757899593887807
 Root     42 :     3.757900660557055
 Root     43 :     3.766162606594806
 Root     44 :     3.828282003080785
 Root     45 :     3.861479745545769
 Root     46 :     3.919015035439832
 Root     47 :     3.919015278507680
 Root     48 :     3.932105228119284
 Root     49 :     3.932105646440350
 Root     50 :     3.980265088932326
 Root     51 :     3.980265221116531
 Root     52 :     4.001935787708006
 Root     53 :     4.001935960063282
 Root     54 :     4.036478812048180
 Root     55 :     4.050653693342620
 Root     56 :     4.055318138071398
 Root     57 :     4.113409646283534
 Root     58 :     4.113410526836487
 Root     59 :     4.145523946532005
 Root     60 :     4.145524623787622
 Root     61 :     4.151123855902822
 Root     62 :     4.155464556864670
 Root     63 :     4.155464792935504
 Root     64 :     4.158464731556551
 Root     65 :     4.158466872978754
 Root     66 :     4.171520812506925
 Root     67 :     4.171520925807706
 Root     68 :     4.176308608792672
 Root     69 :     4.208053495057305
 Root     70 :     4.245596443202613
 Root     71 :     4.245597194483694
 Root     72 :     4.255110389826753
 Root     73 :     4.255111821475493
 Root     74 :     4.257231075138483
 Root     75 :     4.286127947289063
 Root     76 :     4.306798503721294
 Root     77 :     4.315033423665075
 Root     78 :     4.315035265056917
 Root     79 :     4.319186405820262
 Root     80 :     4.343052573146558
 Root     81 :     4.343053225808286
 Root     82 :     4.356700470926305
 Root     83 :     4.384554063329183
 Root     84 :     4.417960860519393
 Root     85 :     4.417962668805611
 Root     86 :     4.420100738660918
 Root     87 :     4.458024143179462
 Root     88 :     4.458024389195309
 Root     89 :     4.462587414250573
 Root     90 :     4.490693149978008
 Root     91 :     4.490694217412991
 Root     92 :     4.497457272441799
 Root     93 :     4.507243843676126
 Root     94 :     4.507244287856034
 Root     95 :     4.507842646073235
 Root     96 :     4.520645049124452
 Root     97 :     4.553041389280455
 Root     98 :     4.568081197580490
 Root     99 :     4.568081537290807
 Root    100 :     4.570349440358101
 Root    101 :     4.570350540577730
 Root    102 :     4.611561561736744
 Root    103 :     4.611562181560618
 Root    104 :     4.664927088402030
 Root    105 :     4.664930409167551
 Root    106 :     4.685431657434535
 Root    107 :     4.696420835458593
 Root    108 :     4.696423341490256
 Root    109 :     4.728503684981436
 Root    110 :     4.728503910895210
 Root    111 :     4.739934249250287
 Root    112 :     4.739935326457850
 Root    113 :     4.741670501857437
 Root    114 :     4.751524221233827
 Root    115 :     4.756508073101992
 Root    116 :     4.756509316880975
 Root    117 :     4.763267934764989
 Root    118 :     4.763268208888721
 Root    119 :     4.803664219140996
 Root    120 :     4.803681844095771
 Root    121 :     4.815679191204031
 Root    122 :     4.815679760990137
 Root    123 :     4.842417504864267
 Root    124 :     4.844525864261867
 Root    125 :     4.867992522839605
 Root    126 :     4.876581584016872
 Root    127 :     4.882304987340572
 Root    128 :     4.912448463695155
 Root    129 :     4.912450478801672
 Root    130 :     4.918907635701015
 Root    131 :     4.951233766262440
 Root    132 :     4.975462971098333
 Root    133 :     4.975463053618207
 Root    134 :     4.977503259220277
 Root    135 :     4.977503282828526
 Root    136 :     4.989798536794210
 Root    137 :     4.989799725983961
 Root    138 :     4.993212384931928
 Root    139 :     4.998827239221991
 Root    140 :     5.022682004613499
 Root    141 :     5.039514693619032
 Root    142 :     5.040971717840866
 Root    143 :     5.051488879090064
 Root    144 :     5.051489003240984
 Root    145 :     5.068003518304486
 Root    146 :     5.085246250467767
 Root    147 :     5.103245957855727
 Root    148 :     5.103249280035414
 Root    149 :     5.114368383024814
 Root    150 :     5.114368519976655
 Root    151 :     5.124447869415015
 Root    152 :     5.124455259676374
 Root    153 :     5.127145097892879
 Root    154 :     5.145645938563248
 Root    155 :     5.146673046307216
 Root    156 :     5.146676596460619
 Root    157 :     5.175084027521303
 Root    158 :     5.177805396205427
 Root    159 :     5.181964338897259
 Root    160 :     5.181965575944889
 Root    161 :     5.204282182470083
 Root    162 :     5.204282916529821
 Root    163 :     5.231856021148503
 Root    164 :     5.231857215201807
 Root    165 :     5.242225016394653
 Root    166 :     5.246821691901537
 Root    167 :     5.266933813266903
 Root    168 :     5.266934337975248
 Root    169 :     5.271530562217404
 Root    170 :     5.272016226995642
 Root    171 :     5.272017674183574
 Root    172 :     5.280301053121001
 Root    173 :     5.280306773731113
 Root    174 :     5.321521084658655
 Root    175 :     5.321522151106866
 Root    176 :     5.322297060614932
 Root    177 :     5.335384382987036
 Root    178 :     5.343055711258409
 Root    179 :     5.343056703518243
 Root    180 :     5.353810679387270
 Root    181 :     5.353810883391217
 Root    182 :     5.357875909242407
 Root    183 :     5.364010511126737
 Root    184 :     5.379530935972919
 Root    185 :     5.379531452292387
 Root    186 :     5.380955783726027
 Root    187 :     5.380958565546937
 Root    188 :     5.386915886736471
 Root    189 :     5.386918108258907
 Root    190 :     5.389872311509768
 Root    191 :     5.393754650322324
 Root    192 :     5.394873947278941
 Root    193 :     5.394874197405573
 Root    194 :     5.400377815847421
 Root    195 :     5.400377824376632
[...]
 Alpha virt. eigenvalues --    1.38769   1.39251   1.39823   1.39869   1.39869
 Alpha virt. eigenvalues --    1.40120   1.40120   1.40838   1.40838   1.40839
 Alpha virt. eigenvalues --    1.41179   1.41179   1.41724   1.42867   1.42867
 Alpha virt. eigenvalues --    1.42924   1.43708   1.43708   1.44489   1.44761
 Alpha virt. eigenvalues --    1.44761   1.46986   1.47564   1.47564   1.48100
 Alpha virt. eigenvalues --    1.48786   1.49752   1.49752   1.49977   1.50034
 Alpha virt. eigenvalues --    1.50406   1.50582   1.50582   1.51407   1.51444
 Alpha virt. eigenvalues --    1.51728   1.51728   1.52286   1.52286   1.52441
 Alpha virt. eigenvalues --    1.52504   1.52504   1.53495   1.53688   1.53688
 Alpha virt. eigenvalues --    1.54219   1.54868   1.54868   1.54960   1.54960
 Alpha virt. eigenvalues --    1.55819   1.56184   1.56184   1.56773   1.56773
 Alpha virt. eigenvalues --    1.57701   1.57701   1.57922   1.58138   1.58138
 Alpha virt. eigenvalues --    1.58162   1.59729   1.60795   1.60795   1.60849
 Alpha virt. eigenvalues --    1.60849   1.61148   1.61860   1.61860   1.62284
 Alpha virt. eigenvalues --    1.62484   1.63089   1.63089   1.63893   1.63893
 Alpha virt. eigenvalues --    1.64085   1.64085   1.64486   1.65388   1.65877
 Alpha virt. eigenvalues --    1.65877   1.66251   1.67026   1.67026   1.67200
 Alpha virt. eigenvalues --    1.67200   1.67668   1.67668   1.69769   1.69769
 Alpha virt. eigenvalues --    1.69950   1.71339   1.72022   1.72486   1.73130
 Alpha virt. eigenvalues --    1.73270   1.73270   1.73548   1.74548   1.74548
 Alpha virt. eigenvalues --    1.74694   1.74694   1.74842   1.75151   1.75151
 Alpha virt. eigenvalues --    1.75451   1.75869   1.75869   1.77831   1.78122
 Alpha virt. eigenvalues --    1.78122   1.78418   1.78418   1.79046   1.79216
 Alpha virt. eigenvalues --    1.79216   1.80110   1.80403   1.80403   1.81021
 Alpha virt. eigenvalues --    1.81021   1.82304   1.82362   1.82405   1.82723
 Alpha virt. eigenvalues --    1.83309   1.83309   1.83325   1.83465   1.83667
 Alpha virt. eigenvalues --    1.83667   1.84070   1.84070   1.84989   1.84989
 Alpha virt. eigenvalues --    1.85586   1.86388   1.86388   1.87517   1.88156
 Alpha virt. eigenvalues --    1.88156   1.88208   1.88604   1.88604   1.88669
 Alpha virt. eigenvalues --    1.88973   1.88973   1.89057   1.89628   1.89628
 Alpha virt. eigenvalues --    1.90232   1.90914   1.90914   1.91430   1.91957
 Alpha virt. eigenvalues --    1.91985   1.92838   1.92838   1.94562   1.94562
 Alpha virt. eigenvalues --    1.94763   1.94837   1.94929   1.94929   1.96052
 Alpha virt. eigenvalues --    1.96291   1.96446   1.96446   1.96708   1.96708
 Alpha virt. eigenvalues --    1.97380   1.97380   1.97561   1.97658   1.97658
 Alpha virt. eigenvalues --    1.97812   1.97812   1.97860   1.97860   1.98709
 Alpha virt. eigenvalues --    1.99300   2.00128   2.00377   2.00377   2.00610
 Alpha virt. eigenvalues --    2.00610   2.00905   2.01607   2.01607   2.02741
 Alpha virt. eigenvalues --    2.02741   2.02924   2.04482   2.04499   2.04499
 Alpha virt. eigenvalues --    2.04701   2.04701   2.04815   2.05934   2.05934
 Alpha virt. eigenvalues --    2.07077   2.07084   2.07790   2.07894   2.09485
 Alpha virt. eigenvalues --    2.09545   2.09545   2.09840   2.09840   2.11103
 Alpha virt. eigenvalues --    2.11103   2.12159   2.12159   2.12653   2.12925
 Alpha virt. eigenvalues --    2.12925   2.13474   2.13474   2.13608   2.14365
 Alpha virt. eigenvalues --    2.14403   2.17257   2.17257   2.17584   2.17736
 Alpha virt. eigenvalues --    2.17736   2.18632   2.18632   2.19079   2.19120
 Alpha virt. eigenvalues --    2.19120   2.19166   2.20063   2.20063   2.20402
 Alpha virt. eigenvalues --    2.20579   2.20579   2.21177   2.21423   2.21826
 Alpha virt. eigenvalues --    2.22227   2.22227   2.22258   2.22920   2.22920
 Alpha virt. eigenvalues --    2.22940   2.22940   2.22984   2.23093   2.23093
 Alpha virt. eigenvalues --    2.24964   2.24964   2.25342   2.25387   2.25712
 Alpha virt. eigenvalues --    2.26542   2.26542   2.26647   2.27167   2.27167
 Alpha virt. eigenvalues --    2.28040   2.28040   2.28827   2.28827   2.29082
 Alpha virt. eigenvalues --    2.29147   2.29232   2.29232   2.30167   2.30484
 Alpha virt. eigenvalues --    2.30484   2.32040   2.32040   2.32119   2.32454
 Alpha virt. eigenvalues --    2.32454   2.32549   2.32549   2.32832   2.33380
 Alpha virt. eigenvalues --    2.33380   2.33786   2.35510   2.35510   2.35820
 Alpha virt. eigenvalues --    2.35820   2.36194   2.36194   2.36323   2.37218
 Alpha virt. eigenvalues --    2.37218   2.37369   2.37369   2.39578   2.40009
 Alpha virt. eigenvalues --    2.40579   2.40579   2.42270   2.43286   2.44674
 Alpha virt. eigenvalues --    2.44674   2.44832   2.45403   2.45403   2.46183
 Alpha virt. eigenvalues --    2.48816   2.49380   2.49380   2.49969   2.49969
 Alpha virt. eigenvalues --    2.50110   2.50110   2.53780   2.53963   2.54335
 Alpha virt. eigenvalues --    2.54335   2.55021   2.55021   2.55162   2.55162
 Alpha virt. eigenvalues --    2.56049   2.56848   2.57326   2.57326   2.58444
 Alpha virt. eigenvalues --    2.58444   2.58855   2.58855   2.59559   2.60323
 Alpha virt. eigenvalues --    2.60323   2.60379   2.60785   2.60785   2.61354
 Alpha virt. eigenvalues --    2.61354   2.61374   2.61764   2.62295   2.63523
 Alpha virt. eigenvalues --    2.63523   2.63901   2.64756   2.64756   2.65299
 Alpha virt. eigenvalues --    2.65299   2.65449   2.65865   2.65865   2.67606
 Alpha virt. eigenvalues --    2.67824   2.67992   2.68778   2.68962   2.68962
 Alpha virt. eigenvalues --    2.69133   2.69133   2.69931   2.69931   2.71205
 Alpha virt. eigenvalues --    2.71626   2.71705   2.71758   2.71758   2.72121
 Alpha virt. eigenvalues --    2.72121   2.72677   2.72677   2.72779   2.73290
 Alpha virt. eigenvalues --    2.74530   2.74530   2.77030   2.77553   2.77557
 Alpha virt. eigenvalues --    2.78017   2.78017   2.78309   2.78514   2.80310
 Alpha virt. eigenvalues --    2.80388   2.80964   2.80964   2.81241   2.81241
 Alpha virt. eigenvalues --    2.81912   2.81912   2.82359   2.82359   2.83344
 Alpha virt. eigenvalues --    2.83344   2.83396   2.83396   2.84619   2.84782
 Alpha virt. eigenvalues --    2.85273   2.85273   2.85315   2.85315   2.85667
 Alpha virt. eigenvalues --    2.86472   2.86472   2.86510   2.86510   2.88070
 Alpha virt. eigenvalues --    2.89182   2.89323   2.89757   2.89757   2.90750
 Alpha virt. eigenvalues --    2.90750   2.91717   2.91717   2.92666   2.93179
 Alpha virt. eigenvalues --    2.93179   2.93467   2.94572   2.94572   2.94795
 Alpha virt. eigenvalues --    2.94878   2.94878   2.95495   2.95495   2.98945
 Alpha virt. eigenvalues --    2.98945   2.99043   2.99920   3.00467   3.00573
 Alpha virt. eigenvalues --    3.01426   3.02457   3.02457   3.04681   3.07015
 Alpha virt. eigenvalues --    3.07015   3.09550   3.09550   3.10346   3.11168
 Alpha virt. eigenvalues --    3.11168   3.13383   3.13383   3.15198   3.16713
 Alpha virt. eigenvalues --    3.16713   3.21070   3.21162   3.29278   3.29278
 Alpha virt. eigenvalues --    3.30755   3.31652   3.31743   3.31743   3.34225
 Alpha virt. eigenvalues --    3.34225   3.34447   3.34590   3.40992   3.40992
 Alpha virt. eigenvalues --    3.45362   3.46145   3.46145   3.47157   3.51564
 Alpha virt. eigenvalues --    3.51564   3.52297   3.52653   3.52653   3.67908
 Alpha virt. eigenvalues --    3.67908   3.69205   3.69205   3.74817   3.75928
 Alpha virt. eigenvalues --    4.13182   4.13219   4.13502   4.13502   4.13659
 Alpha virt. eigenvalues --    4.13659   4.14083   4.14083   4.14084   4.14084
 Alpha virt. eigenvalues --    4.14500   4.14825   4.14911   4.14911   4.15008
 Alpha virt. eigenvalues --    4.15014   4.15659   4.15778   4.15778   4.16179
 Alpha virt. eigenvalues --    4.16885   4.17431   4.17431   4.17903   4.18519
 Alpha virt. eigenvalues --    4.18519   4.18663   4.18663   4.19360   4.19360
 Alpha virt. eigenvalues --    4.19631   4.20393   4.20393   4.20868   4.21855
 Alpha virt. eigenvalues --    4.21855   4.25792   4.25792   4.26537   4.26537
 Alpha virt. eigenvalues --    4.29253   4.34342   4.35839   4.35839   4.35951
 Alpha virt. eigenvalues --    4.36585   4.36585   4.36990   4.36990   4.37177
 Alpha virt. eigenvalues --    4.39048   4.39048   4.41174   4.41270   4.41722
 Alpha virt. eigenvalues --    4.44664   4.45006   4.45006   4.45606   4.45606
 Alpha virt. eigenvalues --    4.49393   4.49393   4.51056   4.52266   4.52266
 Alpha virt. eigenvalues --    4.57071   4.57995   4.61593   4.61593   4.62281
 Alpha virt. eigenvalues --    4.62281   4.68682   4.72565   4.72565   4.76666
 Alpha virt. eigenvalues --    4.77277   4.86910   4.86910   4.94344   4.95461
 Alpha virt. eigenvalues --    4.95461   5.13028   5.13028   5.21622
          Condensed to atoms (all electrons):
 Mulliken charges:
               1
     1  C   -0.223735
     2  C    0.006538
     3  C    0.010435
     4  C    0.006538
     5  C    0.034232
     6  C    0.034232
     7  C   -0.223735
     8  C   -0.223735
     9  C    0.034232
    10  C    0.034232
    11  C    0.006538
    12  C    0.010435
    13  C    0.006538
    14  C    0.006538
    15  C    0.034232
    16  C   -0.223735
    17  C   -0.223735
    18  C   -0.223735
    19  C    0.034232
    20  C    0.006538
    21  C    0.010435
    22  C    0.010435
    23  C    0.006538
    24  C    0.034232
    25  C   -0.223735
    26  C   -0.223735
    27  C   -0.223735
    28  C    0.034232
    29  C    0.006538
    30  C    0.006538
    31  C    0.010435
    32  C    0.006538
    33  C    0.034232
    34  C    0.034232
    35  C   -0.223735
    36  C   -0.223735
    37  C    0.034232
    38  C    0.034232
    39  C    0.006538
    40  C    0.010435
    41  C    0.006538
    42  C    0.006538
    43  C    0.034232
    44  C   -0.223735
    45  C   -0.223735
    46  C   -0.223735
    47  C    0.034232
    48  C    0.006538
    49  C    0.010435
    50  C    0.010435
    51  C    0.006538
    52  C    0.034232
    53  C   -0.223735
    54  C   -0.223735
    55  C   -0.223735
    56  C    0.034232
    57  C    0.006538
    58  C    0.006538
    59  C    0.010435
    60  C    0.006538
    61  C    0.034232
    62  C    0.034232
    63  C   -0.223735
    64  C   -0.223735
    65  C    0.034232
    66  C    0.034232
    67  C    0.006538
    68  C    0.010435
    69  C    0.006538
    70  C    0.006538
    71  C    0.034232
    72  C   -0.223735
    73  C   -0.223735
    74  C   -0.223735
    75  C    0.034232
    76  C    0.006538
    77  C    0.010435
    78  C    0.010435
    79  C    0.006538
    80  C    0.034232
    81  C   -0.223735
    82  C   -0.223735
    83  C    0.034232
    84  C    0.006538
    85  H    0.177748
    86  H    0.177748
    87  H    0.177748
    88  H    0.177748
    89  H    0.177748
    90  H    0.177748
    91  H    0.177748
    92  H    0.177748
    93  H    0.177748
    94  H    0.177748
    95  H    0.177748
    96  H    0.177748
    97  H    0.177748
    98  H    0.177748
    99  H    0.177748
   100  H    0.177748
   101  H    0.177748
   102  H    0.177748
   103  H    0.177748
   104  H    0.177748
   105  H    0.177748
   106  H    0.177748
   107  H    0.177748
   108  H    0.177748
 Sum of Mulliken charges =  -0.00000
 Mulliken charges with hydrogens summed into heavy atoms:
               1
     1  C   -0.045988
     2  C    0.006538
     3  C    0.010435
     4  C    0.006538
     5  C    0.034232
     6  C    0.034232
     7  C   -0.045988
     8  C   -0.045988
     9  C    0.034232
    10  C    0.034232
    11  C    0.006538
    12  C    0.010435
    13  C    0.006538
    14  C    0.006538
    15  C    0.034232
    16  C   -0.045988
    17  C   -0.045988
    18  C   -0.045988
    19  C    0.034232
    20  C    0.006538
    21  C    0.010435
    22  C    0.010435
    23  C    0.006538
    24  C    0.034232
    25  C   -0.045988
    26  C   -0.045988
    27  C   -0.045988
    28  C    0.034232
    29  C    0.006538
    30  C    0.006538
    31  C    0.010435
    32  C    0.006538
    33  C    0.034232
    34  C    0.034232
    35  C   -0.045988
    36  C   -0.045988
    37  C    0.034232
    38  C    0.034232
    39  C    0.006538
    40  C    0.010435
    41  C    0.006538
    42  C    0.006538
    43  C    0.034232
    44  C   -0.045988
    45  C   -0.045988
    46  C   -0.045988
    47  C    0.034232
    48  C    0.006538
    49  C    0.010435
    50  C    0.010435
    51  C    0.006538
    52  C    0.034232
    53  C   -0.045988
    54  C   -0.045988
    55  C   -0.045988
    56  C    0.034232
    57  C    0.006538
    58  C    0.006538
    59  C    0.010435
    60  C    0.006538
    61  C    0.034232
    62  C    0.034232
    63  C   -0.045988
    64  C   -0.045988
    65  C    0.034232
    66  C    0.034232
    67  C    0.006538
    68  C    0.010435
    69  C    0.006538
    70  C    0.006538
    71  C    0.034232
    72  C   -0.045988
    73  C   -0.045988
    74  C   -0.045988
    75  C    0.034232
    76  C    0.006538
    77  C    0.010435
    78  C    0.010435
    79  C    0.006538
    80  C    0.034232
    81  C   -0.045988
    82  C   -0.045988
    83  C    0.034232
    84  C    0.006538
 Electronic spatial extent (au):  <R**2>=          44449.5483
 Charge=             -0.0000 electrons
 Dipole moment (field-independent basis, Debye):
    X=             -0.0000    Y=              0.0000    Z=              0.0000  Tot=              0.0000
 Quadrupole moment (field-independent basis, Debye-Ang):
   XX=           -465.9632   YY=           -465.9632   ZZ=           -377.6640
   XY=             -0.0000   XZ=             -0.0000   YZ=             -0.0000
 Traceless Quadrupole moment (field-independent basis, Debye-Ang):
   XX=            -29.4331   YY=            -29.4331   ZZ=             58.8661
   XY=             -0.0000   XZ=             -0.0000   YZ=             -0.0000
 Octapole moment (field-independent basis, Debye-Ang**2):
  XXX=              0.0000  YYY=              0.0000  ZZZ=             -0.0000  XYY=             -0.0000
  XXY=             -0.0000  XXZ=             -0.0000  XZZ=              0.0000  YZZ=             -0.0000
  YYZ=             -0.0000  XYZ=             -0.0000
 Hexadecapole moment (field-independent basis, Debye-Ang**3):
 XXXX=         -23673.3377 YYYY=         -23673.3377 ZZZZ=         -15615.3182 XXXY=              0.0000
 XXXZ=              0.0000 YYYX=              0.0000 YYYZ=             -0.0000 ZZZX=             -0.0000
 ZZZY=              0.0000 XXYY=          -7891.1126 XXZZ=          -6071.3470 YYZZ=          -6071.3470
 XXYZ=             -0.0000 YYXZ=             -0.0000 ZZXY=              0.0000
 N-N= 1.404813142550D+04 E-N=-3.554418336847D+04  KE= 3.187973966520D+03
 Symmetry AG   KE= 4.565500972430D+02
 Symmetry B1G  KE= 4.433848806380D+02
 Symmetry B2G  KE= 3.501571011595D+02
 Symmetry B3G  KE= 3.438731286752D+02
 Symmetry AU   KE= 3.431947528231D+02
 Symmetry B1U  KE= 3.509092072286D+02
 Symmetry B2U  KE= 4.501226151489D+02
 Symmetry B3U  KE= 4.497821836042D+02
 Leave Link  601 at Thu Jul  7 02:40:59 2022, MaxMem= 26843545600 cpu:             124.9 elap:               3.6
 (Enter /sob/g16/l9999.exe)

 Test job not archived.
 1\1\GINC-2696V3\SP\RPBE1PBE TD-FC\6-31G(d)\C84H24\ROOT\07-Jul-2022\0\\
 #p pbe1pbe/6-31g(d) int=fine td(nstates=100)\\b3lyp/6-31G* opted\\0,1\
 C,0,1.38132564,3.79545293,3.66384289\C,0,1.38132564,3.79545293,-1.2211
 5748\C,0,0.70173332,3.97787101,0.\C,0,1.38132564,3.79545293,1.22115748
 \C,0,-0.70189101,3.97790844,2.4418428\C,0,0.70189101,3.97790844,2.4418
 428\C,0,-1.38132564,3.79545293,3.66384289\C,0,1.38132564,3.79545293,-3
 .66384289\C,0,-0.70189101,3.97790844,-2.4418428\C,0,0.70189101,3.97790
 844,-2.4418428\C,0,-1.38132564,3.79545293,-1.22115748\C,0,-0.70173332,
 3.97787101,0.\C,0,-2.59629583,3.09398957,1.22115748\C,0,-1.38132564,3.
 79545293,1.22115748\C,0,-3.09402425,2.59680966,2.4418428\C,0,-2.596295
 83,3.09398957,3.66384289\C,0,-2.59629583,3.09398957,-3.66384289\C,0,-1
 .38132564,3.79545293,-3.66384289\C,0,-3.09402425,2.59680966,-2.4418428
 \C,0,-2.59629583,3.09398957,-1.22115748\C,0,-3.79580401,1.38121662,0.\
 C,0,-3.09407069,2.59665439,0.\C,0,-3.97762148,0.70146336,1.22115748\C,
 0,-3.79591527,1.38109877,2.4418428\C,0,-3.97762148,-0.70146336,3.66384
 289\C,0,-3.97762148,0.70146336,3.66384289\C,0,-3.97762148,0.70146336,-
 3.66384289\C,0,-3.79591527,1.38109877,-2.4418428\C,0,-3.97762148,-0.70
 146336,-1.22115748\C,0,-3.97762148,0.70146336,-1.22115748\C,0,-3.79580
 401,-1.38121662,0.\C,0,-3.97762148,-0.70146336,1.22115748\C,0,-3.09402
 425,-2.59680966,2.4418428\C,0,-3.79591527,-1.38109877,2.4418428\C,0,-2
 .59629583,-3.09398957,3.66384289\C,0,-3.97762148,-0.70146336,-3.663842
 89\C,0,-3.09402425,-2.59680966,-2.4418428\C,0,-3.79591527,-1.38109877,
 -2.4418428\C,0,-2.59629583,-3.09398957,-1.22115748\C,0,-3.09407069,-2.
 59665439,0.\C,0,-1.38132564,-3.79545293,1.22115748\C,0,-2.59629583,-3.
 09398957,1.22115748\C,0,-0.70189101,-3.97790844,2.4418428\C,0,-1.38132
 564,-3.79545293,3.66384289\C,0,-1.38132564,-3.79545293,-3.66384289\C,0
 ,-2.59629583,-3.09398957,-3.66384289\C,0,-0.70189101,-3.97790844,-2.44
 18428\C,0,-1.38132564,-3.79545293,-1.22115748\C,0,0.70173332,-3.977871
 01,0.\C,0,-0.70173332,-3.97787101,0.\C,0,1.38132564,-3.79545293,1.2211
 5748\C,0,0.70189101,-3.97790844,2.4418428\C,0,2.59629583,-3.09398957,3
 .66384289\C,0,1.38132564,-3.79545293,3.66384289\C,0,1.38132564,-3.7954
 5293,-3.66384289\C,0,0.70189101,-3.97790844,-2.4418428\C,0,2.59629583,
 -3.09398957,-1.22115748\C,0,1.38132564,-3.79545293,-1.22115748\C,0,3.0
 9407069,-2.59665439,0.\C,0,2.59629583,-3.09398957,1.22115748\C,0,3.795
 91527,-1.38109877,2.4418428\C,0,3.09402425,-2.59680966,2.4418428\C,0,3
 .97762148,-0.70146336,3.66384289\C,0,2.59629583,-3.09398957,-3.6638428
 9\C,0,3.79591527,-1.38109877,-2.4418428\C,0,3.09402425,-2.59680966,-2.
 4418428\C,0,3.97762148,-0.70146336,-1.22115748\C,0,3.79580401,-1.38121
 662,0.\C,0,3.97762148,0.70146336,1.22115748\C,0,3.97762148,-0.70146336
 ,1.22115748\C,0,3.79591527,1.38109877,2.4418428\C,0,3.97762148,0.70146
 336,3.66384289\C,0,3.97762148,0.70146336,-3.66384289\C,0,3.97762148,-0
 .70146336,-3.66384289\C,0,3.79591527,1.38109877,-2.4418428\C,0,3.97762
 148,0.70146336,-1.22115748\C,0,3.09407069,2.59665439,0.\C,0,3.79580401
 ,1.38121662,0.\C,0,2.59629583,3.09398957,1.22115748\C,0,3.09402425,2.5
 9680966,2.4418428\C,0,2.59629583,3.09398957,3.66384289\C,0,2.59629583,
 3.09398957,-3.66384289\C,0,3.09402425,2.59680966,-2.4418428\C,0,2.5962
 9583,3.09398957,-1.22115748\H,0,0.97724831,4.18466801,4.5749594\H,0,-0
 .97724831,4.18466801,4.5749594\H,0,0.97724831,4.18466801,-4.5749594\H,
 0,-3.13540465,2.93865586,4.5749594\H,0,-3.13540465,2.93865586,-4.57495
 94\H,0,-0.97724831,4.18466801,-4.5749594\H,0,-4.11265295,-1.24601215,4
 .5749594\H,0,-4.11265295,1.24601215,4.5749594\H,0,-4.11265295,1.246012
 15,-4.5749594\H,0,-3.13540465,-2.93865586,4.5749594\H,0,-4.11265295,-1
 .24601215,-4.5749594\H,0,-0.97724831,-4.18466801,4.5749594\H,0,-0.9772
 4831,-4.18466801,-4.5749594\H,0,-3.13540465,-2.93865586,-4.5749594\H,0
 ,3.13540465,-2.93865586,4.5749594\H,0,0.97724831,-4.18466801,4.5749594
 \H,0,0.97724831,-4.18466801,-4.5749594\H,0,4.11265295,-1.24601215,4.57
 49594\H,0,3.13540465,-2.93865586,-4.5749594\H,0,4.11265295,1.24601215,
 4.5749594\H,0,4.11265295,1.24601215,-4.5749594\H,0,4.11265295,-1.24601
 215,-4.5749594\H,0,3.13540465,2.93865586,4.5749594\H,0,3.13540465,2.93
 865586,-4.5749594\\Version=ES64L-G16RevC.01\State=1-A1G\HF=-3211.92811
 85\RMSD=4.375e-09\PG=D06H [SGH(C12),X(C72H24)]\\@


 HE THAT RISETH LATE MUST TROT ALL DAY.

                  -- BENJAMIN FRANKLIN
 Job cpu time:       1 days  8 hours 11 minutes 36.5 seconds.
 Elapsed time:       0 days  0 hours 54 minutes  0.5 seconds.
 File lengths (MBytes):  RWF= 148873 Int=      0 D2E=      0 Chk=   7970 Scr=      1
 Normal termination of Gaussian 16 at Thu Jul  7 02:41:11 2022.
