 Entering Gaussian System, Link 0=g16
 Initial command:
 /sob/g16/l1.exe "/PM9A1/gauscr/Gau-1045938.inp" -scrdir="/PM9A1/gauscr/"
 Default is to use a total of  96 processors:
                               96 via shared-memory
                                1 via Linda
 Entering Link 1 = /sob/g16/l1.exe PID=   1045948.
  
 Copyright (c) 1988-2021, Gaussian, Inc.  All Rights Reserved.
  
 This is part of the Gaussian(R) 16 program.  It is based on
 the Gaussian(R) 09 system (copyright 2009, Gaussian, Inc.),
 the Gaussian(R) 03 system (copyright 2003, Gaussian, Inc.),
 the Gaussian(R) 98 system (copyright 1998, Gaussian, Inc.),
 the Gaussian(R) 94 system (copyright 1995, Gaussian, Inc.),
 the Gaussian 92(TM) system (copyright 1992, Gaussian, Inc.),
 the Gaussian 90(TM) system (copyright 1990, Gaussian, Inc.),
 the Gaussian 88(TM) system (copyright 1988, Gaussian, Inc.),
 the Gaussian 86(TM) system (copyright 1986, Carnegie Mellon
 University), and the Gaussian 82(TM) system (copyright 1983,
 Carnegie Mellon University). Gaussian is a federally registered
 trademark of Gaussian, Inc.
  
 This software contains proprietary and confidential information,
 including trade secrets, belonging to Gaussian, Inc.
  
 This software is provided under written license and may be
 used, copied, transmitted, or stored only in accord with that
 written license.
  
 The following legend is applicable only to US Government
 contracts under FAR:
  
                    RESTRICTED RIGHTS LEGEND
  
 Use, reproduction and disclosure by the US Government is
 subject to restrictions as set forth in subparagraphs (a)
 and (c) of the Commercial Computer Software - Restricted
 Rights clause in FAR 52.227-19.
  
 Gaussian, Inc.
 340 Quinnipiac St., Bldg. 40, Wallingford CT 06492
  
  
 ---------------------------------------------------------------
 Warning -- This program may not be used in any manner that
 competes with the business of Gaussian, Inc. or will provide
 assistance to any competitor of Gaussian, Inc.  The licensee
 of this program is prohibited from giving any competitor of
 Gaussian, Inc. access to this program.  By using this program,
 the user acknowledges that Gaussian, Inc. is engaged in the
 business of creating and licensing software in the field of
 computational chemistry and represents and warrants to the
 licensee that it is not a competitor of Gaussian, Inc. and that
 it will not use this program in any manner prohibited above.
 ---------------------------------------------------------------
  

 Cite this work as:
 Gaussian 16, Revision C.02,
 M. J. Frisch, G. W. Trucks, H. B. Schlegel, G. E. Scuseria, 
 M. A. Robb, J. R. Cheeseman, G. Scalmani, V. Barone, 
 G. A. Petersson, H. Nakatsuji, X. Li, M. Caricato, A. V. Marenich, 
 J. Bloino, B. G. Janesko, R. Gomperts, B. Mennucci, H. P. Hratchian, 
 J. V. Ortiz, A. F. Izmaylov, J. L. Sonnenberg, D. Williams-Young, 
 F. Ding, F. Lipparini, F. Egidi, J. Goings, B. Peng, A. Petrone, 
 T. Henderson, D. Ranasinghe, V. G. Zakrzewski, J. Gao, N. Rega, 
 G. Zheng, W. Liang, M. Hada, M. Ehara, K. Toyota, R. Fukuda, 
 J. Hasegawa, M. Ishida, T. Nakajima, Y. Honda, O. Kitao, H. Nakai, 
 T. Vreven, K. Throssell, J. A. Montgomery, Jr., J. E. Peralta, 
 F. Ogliaro, M. J. Bearpark, J. J. Heyd, E. N. Brothers, K. N. Kudin, 
 V. N. Staroverov, T. A. Keith, R. Kobayashi, J. Normand, 
 K. Raghavachari, A. P. Rendell, J. C. Burant, S. S. Iyengar, 
 J. Tomasi, M. Cossi, J. M. Millam, M. Klene, C. Adamo, R. Cammi, 
 J. W. Ochterski, R. L. Martin, K. Morokuma, O. Farkas, 
 J. B. Foresman, and D. J. Fox, Gaussian, Inc., Wallingford CT, 2019.
 
 ******************************************
 Gaussian 16:  ES64L-G16RevC.02  7-Dec-2021
                22-Mar-2023 
 ******************************************
 Default route: IOp(8/117=-99) IOp(7/127=-99) scf=noincore
 -------------------------------------
 #P B3LYP/def2TZVP TD(nstates=20) scrf
 -------------------------------------
 1/38=1,172=1/1;
 2/12=2,17=6,18=5,40=1/2;
 3/5=44,7=101,11=9,25=1,30=1,70=2201,74=-5/1,2,3,8;
 4//1;
 5/5=2,38=5/2;
 8/6=1,10=1,108=20,117=-99/1;
 9/41=20,42=1,70=2/14;
 6/7=2,8=2,9=2,10=2/1;
 99/5=1,9=1/99;
 Leave Link    1 at Wed Mar 22 08:53:49 2023, MaxMem=           0 cpu:               1.7 elap:               0.0
 (Enter /sob/g16/l101.exe)
 -----
 opted
 -----
 Symbolic Z-matrix:
 Charge =  0 Multiplicity = 1
 C                    -0.35393   5.32369   0. 
 C                     1.04329   5.17277   0. 
 C                     1.65312   3.91948   0. 
 C                     0.82257   2.79991   0. 
 C                    -0.58324   2.93858   0. 
 C                    -1.17555   4.20241   0. 
 N                     1.16121   1.45593   0. 
 C                     0.02229   0.68012   0. 
 C                    -1.16121   1.59278   0. 
 O                    -2.33569   1.22794   0. 
 C                    -0.02229  -0.68012   0. 
 C                     1.16121  -1.59278   0. 
 C                     0.58324  -2.93858   0. 
 C                    -0.82257  -2.79991   0. 
 N                    -1.16121  -1.45593   0. 
 O                     2.33569  -1.22794   0. 
 C                     1.17555  -4.20241   0. 
 C                     0.35393  -5.32369   0. 
 C                    -1.04329  -5.17277   0. 
 C                    -1.65312  -3.91948   0. 
 H                    -0.78649   6.31755   0. 
 H                     1.67032   6.05817   0. 
 H                     2.73273   3.82154   0. 
 H                    -2.25628   4.29774   0. 
 H                     2.09163   1.06505   0. 
 H                    -2.09163  -1.06505   0. 
 H                     2.25628  -4.29774   0. 
 H                     0.78649  -6.31755   0. 
 H                    -1.67032  -6.05817   0. 
 H                    -2.73273  -3.82154   0. 
 
 ITRead=  0  0  0  0  0  0  0  0  0  0  0  0  0  0  0  0  0  0  0  0
 ITRead=  0  0  0  0  0  0  0  0  0  0
 MicOpt= -1 -1 -1 -1 -1 -1 -1 -1 -1 -1 -1 -1 -1 -1 -1 -1 -1 -1 -1 -1
 MicOpt= -1 -1 -1 -1 -1 -1 -1 -1 -1 -1
 NAtoms=     30 NQM=       30 NQMF=       0 NMMI=      0 NMMIF=      0
                NMic=       0 NMicF=      0.
                    Isotopes and Nuclear Properties:
 (Nuclear quadrupole moments (NQMom) in fm**2, nuclear magnetic moments (NMagM)
  in nuclear magnetons)

  Atom         1           2           3           4           5           6           7           8           9          10
 IAtWgt=          12          12          12          12          12          12          14          12          12          16
 AtmWgt=  12.0000000  12.0000000  12.0000000  12.0000000  12.0000000  12.0000000  14.0030740  12.0000000  12.0000000  15.9949146
 NucSpn=           0           0           0           0           0           0           2           0           0           0
 AtZEff=  -0.0000000  -0.0000000  -0.0000000  -0.0000000  -0.0000000  -0.0000000  -0.0000000  -0.0000000  -0.0000000  -0.0000000
 NQMom=    0.0000000   0.0000000   0.0000000   0.0000000   0.0000000   0.0000000   2.0440000   0.0000000   0.0000000   0.0000000
 NMagM=    0.0000000   0.0000000   0.0000000   0.0000000   0.0000000   0.0000000   0.4037610   0.0000000   0.0000000   0.0000000
 AtZNuc=   6.0000000   6.0000000   6.0000000   6.0000000   6.0000000   6.0000000   7.0000000   6.0000000   6.0000000   8.0000000

  Atom        11          12          13          14          15          16          17          18          19          20
 IAtWgt=          12          12          12          12          14          16          12          12          12          12
 AtmWgt=  12.0000000  12.0000000  12.0000000  12.0000000  14.0030740  15.9949146  12.0000000  12.0000000  12.0000000  12.0000000
 NucSpn=           0           0           0           0           2           0           0           0           0           0
 AtZEff=  -0.0000000  -0.0000000  -0.0000000  -0.0000000  -0.0000000  -0.0000000  -0.0000000  -0.0000000  -0.0000000  -0.0000000
 NQMom=    0.0000000   0.0000000   0.0000000   0.0000000   2.0440000   0.0000000   0.0000000   0.0000000   0.0000000   0.0000000
 NMagM=    0.0000000   0.0000000   0.0000000   0.0000000   0.4037610   0.0000000   0.0000000   0.0000000   0.0000000   0.0000000
 AtZNuc=   6.0000000   6.0000000   6.0000000   6.0000000   7.0000000   8.0000000   6.0000000   6.0000000   6.0000000   6.0000000

  Atom        21          22          23          24          25          26          27          28          29          30
 IAtWgt=           1           1           1           1           1           1           1           1           1           1
 AtmWgt=   1.0078250   1.0078250   1.0078250   1.0078250   1.0078250   1.0078250   1.0078250   1.0078250   1.0078250   1.0078250
 NucSpn=           1           1           1           1           1           1           1           1           1           1
 AtZEff=  -0.0000000  -0.0000000  -0.0000000  -0.0000000  -0.0000000  -0.0000000  -0.0000000  -0.0000000  -0.0000000  -0.0000000
 NQMom=    0.0000000   0.0000000   0.0000000   0.0000000   0.0000000   0.0000000   0.0000000   0.0000000   0.0000000   0.0000000
 NMagM=    2.7928460   2.7928460   2.7928460   2.7928460   2.7928460   2.7928460   2.7928460   2.7928460   2.7928460   2.7928460
 AtZNuc=   1.0000000   1.0000000   1.0000000   1.0000000   1.0000000   1.0000000   1.0000000   1.0000000   1.0000000   1.0000000
 Leave Link  101 at Wed Mar 22 08:53:49 2023, MaxMem= 64424509440 cpu:               1.6 elap:               0.1
 (Enter /sob/g16/l202.exe)
                          Input orientation:                          
 ---------------------------------------------------------------------
 Center     Atomic      Atomic             Coordinates (Angstroms)
 Number     Number       Type             X           Y           Z
 ---------------------------------------------------------------------
      1          6           0       -0.353929    5.323686    0.000000
      2          6           0        1.043285    5.172770    0.000000
      3          6           0        1.653120    3.919481    0.000000
      4          6           0        0.822574    2.799905    0.000000
      5          6           0       -0.583244    2.938578    0.000000
      6          6           0       -1.175553    4.202406    0.000000
      7          7           0        1.161211    1.455926    0.000000
      8          6           0        0.022287    0.680116    0.000000
      9          6           0       -1.161211    1.592784    0.000000
     10          8           0       -2.335694    1.227944    0.000000
     11          6           0       -0.022287   -0.680116    0.000000
     12          6           0        1.161211   -1.592784    0.000000
     13          6           0        0.583244   -2.938578    0.000000
     14          6           0       -0.822574   -2.799905    0.000000
     15          7           0       -1.161211   -1.455926    0.000000
     16          8           0        2.335694   -1.227944    0.000000
     17          6           0        1.175553   -4.202406    0.000000
     18          6           0        0.353929   -5.323686    0.000000
     19          6           0       -1.043285   -5.172770    0.000000
     20          6           0       -1.653120   -3.919481    0.000000
     21          1           0       -0.786489    6.317546    0.000000
     22          1           0        1.670322    6.058166    0.000000
     23          1           0        2.732731    3.821538    0.000000
     24          1           0       -2.256281    4.297737    0.000000
     25          1           0        2.091628    1.065046    0.000000
     26          1           0       -2.091628   -1.065046    0.000000
     27          1           0        2.256281   -4.297737    0.000000
     28          1           0        0.786489   -6.317546    0.000000
     29          1           0       -1.670322   -6.058166    0.000000
     30          1           0       -2.732731   -3.821538    0.000000
 ---------------------------------------------------------------------
                    Distance matrix (angstroms):
                    1          2          3          4          5
     1  C    0.000000
     2  C    1.405341   0.000000
     3  C    2.449497   1.393783   0.000000
     4  C    2.784534   2.383108   1.394008   0.000000
     5  C    2.396106   2.763550   2.442027   1.412641   0.000000
     6  C    1.390084   2.421745   2.842787   2.441213   1.395740
     7  N    4.153940   3.718714   2.512186   1.385985   2.289406
     8  C    4.658785   4.607209   3.626721   2.265825   2.338230
     9  C    3.817242   4.204296   3.651572   2.322185   1.464653
    10  O    4.549999   5.194146   4.811965   3.527849   2.448949
    11  C    6.012955   5.949094   4.895230   3.581108   3.661915
    12  C    7.080481   6.766582   5.534170   4.405723   4.855550
    13  C    8.315245   8.124383   6.941009   5.743472   5.991799
    14  C    8.137098   8.188100   7.160950   5.836470   5.743472
    15  N    6.827506   6.985658   6.067574   4.695477   4.432348
    16  O    7.082226   6.529890   5.192484   4.302685   5.087249
    17  C    9.648095   9.376109   8.135915   7.011202   7.354388
    18  C   10.670876  10.519068   9.334026   8.137098   8.315245
    19  C   10.519068  10.553861   9.483651   8.188100   8.124383
    20  C    9.334026   9.483651   8.507676   7.160950   6.941009
    21  H    1.083912   2.158376   3.420878   3.868188   3.385075
    22  H    2.153382   1.084943   2.138754   3.366740   3.848427
    23  H    3.432771   2.163344   1.084045   2.166203   3.431517
    24  H    2.161369   3.413622   3.927658   3.423865   2.155543
    25  H    4.910882   4.239389   2.887921   2.149473   3.265741
    26  H    6.620838   6.981263   6.234472   4.840498   4.278344
    27  H    9.969201   9.547872   8.239325   7.240997   7.773491
    28  H   11.696958  11.493185  10.273644   9.117522   9.356923
    29  H   11.457724  11.554116  10.516592   9.202171   9.062182
    30  H    9.449541   9.754787   8.897138   7.515564   7.093621
                    6          7          8          9         10
     6  C    0.000000
     7  N    3.606053   0.000000
     8  C    3.720396   1.378053   0.000000
     9  C    2.609661   2.326451   1.494534   0.000000
    10  O    3.192703   3.504329   2.420783   1.229845   0.000000
    11  C    5.016876   2.441996   1.360962   2.542287   2.998757
    12  C    6.248575   3.048710   2.542287   3.942269   4.492755
    13  C    7.354388   4.432348   3.661915   4.855550   5.087249
    14  C    7.011202   4.695477   3.581108   4.405723   4.302685
    15  N    5.658350   3.724584   2.441996   3.048710   2.929602
    16  O    6.466650   2.929602   2.998757   4.492755   5.277618
    17  C    8.727460   5.658350   5.016876   6.248575   6.466650
    18  C    9.648095   6.827506   6.012955   7.080481   7.082226
    19  C    9.376109   6.985658   5.949094   6.766582   6.529890
    20  C    8.135915   6.067574   4.895230   5.534170   5.192484
    21  H    2.150625   5.237259   5.695150   4.739598   5.320158
    22  H    3.397477   4.630314   5.624895   5.287458   6.275286
    23  H    3.926798   2.840034   4.149101   4.486661   5.693475
    24  H    1.084924   4.444676   4.275401   2.918210   3.070820
    25  H    4.529625   1.009189   2.104838   3.295371   4.430318
    26  H    5.346517   4.115369   2.741209   2.815979   2.305943
    27  H    9.166783   5.856946   5.456166   6.810102   7.184663
    28  H   10.701355   7.782499   7.039267   8.146586   8.165932
    29  H   10.272494   8.029892   6.947616   7.667870   7.316428
    30  H    8.173645   6.558537   5.277785   5.637780   5.065067
                   11         12         13         14         15
    11  C    0.000000
    12  C    1.494534   0.000000
    13  C    2.338230   1.464653   0.000000
    14  C    2.265825   2.322185   1.412641   0.000000
    15  N    1.378053   2.326451   2.289406   1.385985   0.000000
    16  O    2.420783   1.229845   2.448949   3.527849   3.504329
    17  C    3.720396   2.609661   1.395740   2.441213   3.606053
    18  C    4.658785   3.817242   2.396106   2.784534   4.153940
    19  C    4.607209   4.204296   2.763550   2.383108   3.718714
    20  C    3.626721   3.651572   2.442027   1.394008   2.512186
    21  H    7.039267   8.146586   9.356923   9.117522   7.782499
    22  H    6.947616   7.667870   9.062182   9.202171   8.029892
    23  H    5.277785   5.637780   7.093621   7.515564   6.558537
    24  H    5.456166   6.810102   7.773491   7.240997   5.856946
    25  H    2.741209   2.815979   4.278344   4.840498   4.115369
    26  H    2.104838   3.295371   3.265741   2.149473   1.009189
    27  H    4.275401   2.918210   2.155543   3.423865   4.444676
    28  H    5.695150   4.739598   3.385075   3.868188   5.237259
    29  H    5.624895   5.287458   3.848427   3.366740   4.630314
    30  H    4.149101   4.486661   3.431517   2.166203   2.840034
                   16         17         18         19         20
    16  O    0.000000
    17  C    3.192703   0.000000
    18  C    4.549999   1.390084   0.000000
    19  C    5.194146   2.421745   1.405341   0.000000
    20  C    4.811965   2.842787   2.449497   1.393783   0.000000
    21  H    8.165932  10.701355  11.696958  11.493185  10.273644
    22  H    7.316428  10.272494  11.457724  11.554116  10.516592
    23  H    5.065067   8.173645   9.449541   9.754787   8.897138
    24  H    7.184663   9.166783   9.969201   9.547872   8.239325
    25  H    2.305943   5.346517   6.620838   6.981263   6.234472
    26  H    4.430318   4.529625   4.910882   4.239389   2.887921
    27  H    3.070820   1.084924   2.161369   3.413622   3.927658
    28  H    5.320158   2.150625   1.083912   2.158376   3.420878
    29  H    6.275286   3.397477   2.153382   1.084943   2.138754
    30  H    5.693475   3.926798   3.432771   2.163344   1.084045
                   21         22         23         24         25
    21  H    0.000000
    22  H    2.470465   0.000000
    23  H    4.314506   2.476130   0.000000
    24  H    2.497983   4.303176   5.011687   0.000000
    25  H    5.989350   5.010863   2.830064   5.417989   0.000000
    26  H    7.497070   8.055583   6.866815   5.365310   4.694350
    27  H   11.042766  10.372467   8.133242   9.708006   5.365310
    28  H   12.732628  12.407232  10.324189  11.042766   7.497070
    29  H   12.407232  12.568429  10.816442  10.372467   8.055583
    30  H   10.324189  10.816442   9.396163   8.133242   6.866815
                   26         27         28         29         30
    26  H    0.000000
    27  H    5.417989   0.000000
    28  H    5.989350   2.497983   0.000000
    29  H    5.010863   4.303176   2.470465   0.000000
    30  H    2.830064   5.011687   4.314506   2.476130   0.000000
 Stoichiometry    C16H10N2O2
 Framework group  C2H[SGH(C16H10N2O2)]
 Deg. of freedom    29
 Full point group                 C2H     NOp   4
 Largest Abelian subgroup         C2H     NOp   4
 Largest concise Abelian subgroup C2      NOp   2
                         Standard orientation:                         
 ---------------------------------------------------------------------
 Center     Atomic      Atomic             Coordinates (Angstroms)
 Number     Number       Type             X           Y           Z
 ---------------------------------------------------------------------
      1          6           0       -0.353929    5.323686    0.000000
      2          6           0        1.043285    5.172770    0.000000
      3          6           0        1.653120    3.919481    0.000000
      4          6           0        0.822574    2.799905    0.000000
      5          6           0       -0.583244    2.938578    0.000000
      6          6           0       -1.175553    4.202406    0.000000
      7          7           0        1.161211    1.455926    0.000000
      8          6           0        0.022287    0.680116    0.000000
      9          6           0       -1.161211    1.592784    0.000000
     10          8           0       -2.335694    1.227944    0.000000
     11          6           0       -0.022287   -0.680116    0.000000
     12          6           0        1.161211   -1.592784    0.000000
     13          6           0        0.583244   -2.938578    0.000000
     14          6           0       -0.822574   -2.799905    0.000000
     15          7           0       -1.161211   -1.455926    0.000000
     16          8           0        2.335694   -1.227944    0.000000
     17          6           0        1.175553   -4.202406    0.000000
     18          6           0        0.353929   -5.323686    0.000000
     19          6           0       -1.043285   -5.172770    0.000000
     20          6           0       -1.653120   -3.919481    0.000000
     21          1           0       -0.786489    6.317546    0.000000
     22          1           0        1.670322    6.058166    0.000000
     23          1           0        2.732731    3.821538    0.000000
     24          1           0       -2.256281    4.297737    0.000000
     25          1           0        2.091628    1.065046    0.000000
     26          1           0       -2.091628   -1.065046    0.000000
     27          1           0        2.256281   -4.297737    0.000000
     28          1           0        0.786489   -6.317546    0.000000
     29          1           0       -1.670322   -6.058166    0.000000
     30          1           0       -2.732731   -3.821538    0.000000
 ---------------------------------------------------------------------
 Rotational constants (GHZ):           1.1582599           0.1733778           0.1508042
 Leave Link  202 at Wed Mar 22 08:53:49 2023, MaxMem= 64424509440 cpu:               1.7 elap:               0.0
 (Enter /sob/g16/l301.exe)
 Standard basis: def2TZVP (5D, 7F)
 Ernie: Thresh=  0.10000D-02 Tol=  0.10000D-05 Strict=F.
 There are   275 symmetry adapted cartesian basis functions of AG  symmetry.
 There are   115 symmetry adapted cartesian basis functions of BG  symmetry.
 There are   115 symmetry adapted cartesian basis functions of AU  symmetry.
 There are   275 symmetry adapted cartesian basis functions of BU  symmetry.
 There are   235 symmetry adapted basis functions of AG  symmetry.
 There are   105 symmetry adapted basis functions of BG  symmetry.
 There are   105 symmetry adapted basis functions of AU  symmetry.
 There are   235 symmetry adapted basis functions of BU  symmetry.
   680 basis functions,  1100 primitive gaussians,   780 cartesian basis functions
    68 alpha electrons       68 beta electrons
       nuclear repulsion energy      1378.6253956073 Hartrees.
 IExCor=  402 DFT=T Ex+Corr=B3LYP ExCW=0 ScaHFX=  0.200000
 ScaDFX=  0.800000  0.720000  1.000000  0.810000 ScalE2=  1.000000  1.000000
 IRadAn=      5 IRanWt=     -1 IRanGd=            0 ICorTp=0 IEmpDi=  4
 NAtoms=   30 NActive=   30 NUniq=   15 SFac= 4.00D+00 NAtFMM=   60 NAOKFM=F Big=F
 Integral buffers will be    131072 words long.
 Regular integral format.
 Two-electron integral symmetry is turned on.
 ------------------------------------------------------------------------------
 Polarizable Continuum Model (PCM)
 =================================
 Model                : PCM.
 Atomic radii         : UFF (Universal Force Field).
 Polarization charges : Total charges.
 Charge compensation  : None.
 Solution method      : On-the-fly selection.
 Cavity type          : Scaled VdW (van der Waals Surface) (Alpha=1.100).
 Cavity algorithm     : GePol (No added spheres)
                        Default sphere list used, NSphG=   30.
                        Lebedev-Laikov grids with approx.  5.0 points / Ang**2.
                        Smoothing algorithm: York/Karplus (Gamma=1.0000).
                        Polarization charges: spherical gaussians, with
                                              point-specific exponents (IZeta= 3).
                        Self-potential: point-specific (ISelfS= 7).
                        Self-field    : sphere-specific E.n sum rule (ISelfD= 2).
 Solvent              : Water, Eps=  78.355300 Eps(inf)=   1.777849
 ------------------------------------------------------------------------------
 GePol: Number of generator spheres                  =      30
 GePol: Total number of spheres                      =      30
 GePol: Number of exposed spheres                    =      30 (100.00%)
 GePol: Number of points                             =    2512
 GePol: Average weight of points                     =       0.13
 GePol: Minimum weight of points                     =   0.13D-08
 GePol: Maximum weight of points                     =    0.20577
 GePol: Number of points with low weight             =     188
 GePol: Fraction of low-weight points (<1% of avg)   =       7.48%
 GePol: Cavity surface area                          =    315.981 Ang**2
 GePol: Cavity volume                                =    341.192 Ang**3
 Leave Link  301 at Wed Mar 22 08:53:49 2023, MaxMem= 64424509440 cpu:               1.6 elap:               0.1
 (Enter /sob/g16/l302.exe)
 NPDir=0 NMtPBC=     1 NCelOv=     1 NCel=       1 NClECP=     1 NCelD=      1
         NCelK=      1 NCelE2=     1 NClLst=     1 CellRange=     0.0.
 One-electron integrals computed using PRISM.
 One-electron integral symmetry used in STVInt
   4 Symmetry operations used in ECPInt.
 ECPInt:  NShTT=   33930 NPrTT=  106500 LenC2=   28833 LenP2D=   64733.
 LDataN:  DoStor=T MaxTD1= 6 Len=  172
 NBasis=   680 RedAO= T EigKep=  6.24D-06  NBF=   235   105   105   235
 NBsUse=   680 1.00D-06 EigRej= -1.00D+00 NBFU=   235   105   105   235
 Precomputing XC quadrature grid using
 IXCGrd= 4 IRadAn=           5 IRanWt=          -1 IRanGd=           0 AccXCQ= 0.00D+00.
 Generated NRdTot=       0 NPtTot=           0 NUsed=           0 NTot=          32
 NSgBfM=   763   763   763   763   763 MxSgAt=    30 MxSgA2=    30.
 Leave Link  302 at Wed Mar 22 08:53:50 2023, MaxMem= 64424509440 cpu:              32.8 elap:               0.8
 (Enter /sob/g16/l303.exe)
 DipDrv:  MaxL=1.
 Leave Link  303 at Wed Mar 22 08:53:50 2023, MaxMem= 64424509440 cpu:               3.0 elap:               0.1
 (Enter /sob/g16/l308.exe)
 Leave Link  308 at Wed Mar 22 08:53:50 2023, MaxMem= 64424509440 cpu:               6.2 elap:               0.2
 (Enter /sob/g16/l401.exe)
 ExpMin= 9.52D-02 ExpMax= 2.70D+04 ExpMxC= 9.22D+02 IAcc=3 IRadAn=         5 AccDes= 0.00D+00
 Harris functional with IExCor=  402 and IRadAn=       5 diagonalized for initial guess.
 HarFok:  IExCor=  402 AccDes= 0.00D+00 IRadAn=         5 IDoV= 1 UseB2=F ITyADJ=14
 ICtDFT=  3500011 ScaDFX=  1.000000  1.000000  1.000000  1.000000
 FoFCou: FMM=F IPFlag=           0 FMFlag=      100000 FMFlg1=           0
         NFxFlg=           0 DoJE=T BraDBF=F KetDBF=T FulRan=T
         wScrn=  0.000000 ICntrl=       500 IOpCl=  0 I1Cent=   200000004 NGrid=           0
         NMat0=    1 NMatS0=      1 NMatT0=    0 NMatD0=    1 NMtDS0=    0 NMtDT0=    0
 Petite list used in FoFCou.
 Harris En= -876.036354127032    
 JPrj=0 DoOrth=F DoCkMO=F.
 Initial guess orbital symmetries:
       Occupied  (BU) (AG) (BU) (AG) (BU) (AG) (BU) (AG) (BU) (AG)
                 (BU) (AG) (BU) (AG) (BU) (AG) (BU) (AG) (AG) (BU)
                 (AG) (BU) (AG) (BU) (AG) (BU) (AG) (BU) (AG) (BU)
                 (AG) (BU) (AG) (BU) (AG) (BU) (AG) (BU) (AG) (BU)
                 (AG) (BU) (BU) (AG) (AG) (BU) (AG) (BU) (BU) (AG)
                 (AG) (AU) (BG) (BU) (AG) (AG) (BU) (BG) (AU) (AU)
                 (BG) (BU) (AU) (BG) (AG) (AU) (BG) (AU)
       Virtual   (BG) (AU) (BG) (AU) (BG) (AU) (BU) (AG) (BU) (BG)
                 (AG) (BU) (AG) (AU) (BG) (BU) (AG) (BU) (AG) (BU)
                 (AG) (BU) (AG) (AG) (BU) (AG) (BU) (AG) (BU) (BU)
                 (AU) (AG) (BG) (AG) (BU) (AG) (BU) (BU) (AU) (AG)
                 (BG) (BU) (AG) (AU) (BU) (BG) (AG) (BU) (AG) (BG)
                 (AU) (AG) (BU) (BU) (BU) (AG) (AU) (BU) (BG) (AU)
                 (AG) (BU) (BG) (BU) (AG) (BU) (AG) (AG) (BG) (AG)
                 (BU) (AU) (AG) (AG) (BU) (BU) (AG) (BU) (AU) (AG)
                 (BG) (AG) (BU) (AG) (AU) (BG) (BU) (BU) (BU) (AG)
                 (AG) (BU) (AG) (BU) (AU) (BG) (AG) (BU) (AG) (AU)
                 (BG) (AG) (BU) (AG) (BU) (AG) (BU) (BU) (AG) (BU)
                 (AG) (BU) (AU) (BG) (BU) (AG) (BG) (AU) (AG) (AU)
                 (AG) (BU) (BG) (BU) (AG) (BG) (AG) (AU) (BU) (BU)
                 (AG) (BG) (AG) (BU) (BU) (AU) (BU) (AG) (BG) (AU)
                 (AG) (BU) (AG) (AU) (BU) (AG) (BU) (BU) (AG) (BG)
                 (AG) (BU) (BU) (AG) (AG) (AG) (BU) (BG) (AU) (BU)
                 (AU) (BG) (AG) (AG) (BU) (AU) (BG) (AG) (BU) (AG)
                 (BG) (BU) (AU) (BU) (AG) (AG) (BU) (BG) (AU) (AG)
                 (BU) (BU) (AU) (AG) (AG) (BU) (BG) (BU) (AG) (AU)
                 (BG) (AU) (BU) (AG) (AG) (BU) (BG) (AG) (AU) (BU)
                 (AG) (BU) (AU) (AG) (BU) (BG) (BU) (AU) (BG) (AG)
                 (BG) (BU) (AU) (AG) (AG) (BU) (BU) (BU) (AG) (BG)
                 (AG) (BU) (BG) (AU) (AU) (BU) (BG) (AG) (BU) (AG)
                 (AU) (AG) (BG) (BU) (AU) (AG) (BU) (BU) (AG) (BG)
                 (BU) (AU) (AG) (BG) (BU) (BG) (AG) (AU) (BG) (BU)
                 (AU) (BG) (AU) (AG) (BU) (BU) (AG) (AG) (BG) (AU)
                 (BG) (AG) (AG) (AU) (BU) (BU) (AG) (BU) (BG) (AU)
                 (BU) (AG) (BU) (AG) (AG) (BU) (AU) (AG) (BU) (AG)
                 (BG) (AG) (BU) (AG) (BU) (BG) (BU) (BU) (AG) (AG)
                 (BU) (AU) (AG) (AU) (BU) (AU) (BG) (BG) (AG) (BU)
                 (AG) (BU) (BU) (AG) (AG) (AU) (BU) (AG) (BU) (BG)
                 (BU) (AG) (BU) (AG) (AG) (BU) (AU) (BG) (AG) (BU)
                 (AG) (BG) (AU) (BU) (AG) (BG) (BU) (AU) (BG) (AU)
                 (AG) (BU) (AU) (AG) (BG) (AG) (AU) (BU) (AG) (BU)
                 (AG) (BU) (BG) (BU) (BG) (AU) (BU) (AG) (AU) (AG)
                 (BG) (BU) (AU) (BU) (AG) (AG) (BU) (BG) (AG) (AU)
                 (BU) (BG) (AG) (AU) (BG) (BU) (AG) (AU) (BU) (BG)
                 (AU) (AG) (AU) (BG) (BU) (AG) (AG) (BU) (BG) (BU)
                 (AG) (AU) (BG) (BU) (AU) (AG) (BG) (BU) (AG) (AU)
                 (BU) (AG) (BG) (AU) (BU) (BG) (AG) (BU) (BG) (AU)
                 (AG) (BU) (AG) (AU) (BG) (AG) (BU) (AG) (BU) (BG)
                 (BU) (AG) (AU) (BU) (AU) (BG) (AG) (AU) (AG) (AG)
                 (AU) (BG) (BU) (BG) (AU) (BU) (BU) (AG) (AG) (BU)
                 (BG) (BU) (AG) (BU) (AU) (BG) (AG) (BU) (AG) (BU)
                 (AU) (BG) (AU) (BU) (AG) (AG) (AG) (BU) (BU) (BG)
                 (AU) (AG) (AG) (BU) (BU) (BG) (AG) (AG) (BU) (AU)
                 (AG) (BG) (BU) (AU) (BU) (AG) (BU) (AG) (BU) (BU)
                 (BG) (AG) (AG) (AG) (BU) (BG) (BU) (AG) (AU) (AG)
                 (BU) (AU) (BU) (AG) (BG) (BU) (AU) (BG) (AU) (AG)
                 (BU) (BG) (BG) (BU) (AG) (AU) (BU) (AG) (BU) (AU)
                 (AG) (BG) (BU) (AG) (AG) (BU) (AG) (AU) (BU) (BG)
                 (AU) (AG) (BU) (AG) (AG) (BG) (BU) (BU) (BU) (AG)
                 (AU) (BG) (AG) (BU) (AG) (AU) (BG) (AG) (BU) (BG)
                 (BU) (AU) (AG) (BU) (BU) (AG) (AG) (BU) (AU) (BG)
                 (BU) (AG) (AU) (BG) (BU) (AG) (AG) (BG) (BU) (AG)
                 (AU) (BU) (AG) (BU) (AG) (BU) (BU) (AG) (BU) (AG)
                 (AG) (BG) (BU) (AU) (AG) (BU) (AG) (BU) (BU) (AG)
                 (BU) (AG) (AG) (BU) (AU) (BU) (BG) (AG) (BG) (AU)
                 (AG) (BU) (BU) (AG) (BU) (AU) (BG) (AG) (BU) (AG)
                 (BU) (AG) (AG) (BU) (AG) (BU) (AG) (BU) (AG) (BU)
                 (BU) (AG) (AG) (BU) (BU) (AG) (AG) (BU) (AG) (BU)
                 (AG) (BU)
 The electronic state of the initial guess is 1-AG.
 Leave Link  401 at Wed Mar 22 08:53:51 2023, MaxMem= 64424509440 cpu:              40.2 elap:               0.8
 (Enter /sob/g16/l502.exe)
 Integral symmetry usage will be decided dynamically.
 Closed shell SCF:
 Using DIIS extrapolation, IDIIS=  1040.
 NGot= 64424509440 LenX= 64423205242 LenY= 64422596062
 Requested convergence on RMS density matrix=1.00D-08 within 128 cycles.
 Requested convergence on MAX density matrix=1.00D-06.
 Requested convergence on             energy=1.00D-06.
 No special actions if energy rises.
 Fock matrices will be formed incrementally for  20 cycles.

 Cycle   1  Pass 1  IDiag  1:
 FoFJK:  IHMeth= 1 ICntrl=       0 DoSepK=F KAlg= 0 I1Cent=           0 FoldK=F
 IRaf= 780000000 NMat=       1 IRICut=       1 DoRegI=T DoRafI=F ISym2E= 1 IDoP0=0 IntGTp=1.
 FoFCou: FMM=F IPFlag=           0 FMFlag=      100000 FMFlg1=           0
         NFxFlg=           0 DoJE=F BraDBF=F KetDBF=F FulRan=T
         wScrn=  0.000000 ICntrl=         0 IOpCl=  0 I1Cent=           0 NGrid=           0
         NMat0=    1 NMatS0=      1 NMatT0=    0 NMatD0=    1 NMtDS0=    0 NMtDT0=    0
 Petite list used in FoFCou.
 Inv3:  Mode=1 IEnd=    18930432.
 Iteration    1 A*A^-1 deviation from unit magnitude is 3.11D-15 for    190.
 Iteration    1 A*A^-1 deviation from orthogonality  is 5.15D-15 for   1988    322.
 Iteration    1 A^-1*A deviation from unit magnitude is 3.55D-15 for    744.
 Iteration    1 A^-1*A deviation from orthogonality  is 2.17D-15 for   1835    480.
 E= -875.598374539877    
 DIIS: error= 3.11D-02 at cycle   1 NSaved=   1.
 NSaved= 1 IEnMin= 1 EnMin= -875.598374539877     IErMin= 1 ErrMin= 3.11D-02
 ErrMax= 3.11D-02  0.00D+00 EMaxC= 1.00D-01 BMatC= 5.15D-01 BMatP= 5.15D-01
 IDIUse=3 WtCom= 6.89D-01 WtEn= 3.11D-01
 Coeff-Com:  0.100D+01
 Coeff-En:   0.100D+01
 Coeff:      0.100D+01
 Gap=     0.100 Goal=   None    Shift=    0.000
 GapD=    0.100 DampG=1.000 DampE=0.500 DampFc=0.5000 IDamp=-1.
 Damping current iteration by 5.00D-01
 RMSDP=1.15D-02 MaxDP=1.86D+00              OVMax= 2.65D-01

 Cycle   2  Pass 1  IDiag  1:
 RMSU=  5.70D-03    CP:  1.09D+00
 E= -875.738601030870     Delta-E=       -0.140226490993 Rises=F Damp=T
 DIIS: error= 8.49D-03 at cycle   2 NSaved=   2.
 NSaved= 2 IEnMin= 2 EnMin= -875.738601030870     IErMin= 2 ErrMin= 8.49D-03
 ErrMax= 8.49D-03  0.00D+00 EMaxC= 1.00D-01 BMatC= 7.53D-02 BMatP= 5.15D-01
 IDIUse=3 WtCom= 9.15D-01 WtEn= 8.49D-02
 Coeff-Com:  0.171D+00 0.829D+00
 Coeff-En:   0.288D+00 0.712D+00
 Coeff:      0.181D+00 0.819D+00
 Gap=     0.087 Goal=   None    Shift=    0.000
 RMSDP=4.00D-03 MaxDP=6.85D-01 DE=-1.40D-01 OVMax= 2.05D-01

 Cycle   3  Pass 1  IDiag  1:
 RMSU=  1.13D-03    CP:  1.00D+00  3.33D-01
 E= -875.964998159748     Delta-E=       -0.226397128878 Rises=F Damp=F
 DIIS: error= 1.13D-02 at cycle   3 NSaved=   3.
 NSaved= 3 IEnMin= 3 EnMin= -875.964998159748     IErMin= 2 ErrMin= 8.49D-03
 ErrMax= 1.13D-02  0.00D+00 EMaxC= 1.00D-01 BMatC= 8.54D-02 BMatP= 7.53D-02
 IDIUse=2 WtCom= 0.00D+00 WtEn= 1.00D+00
 Coeff-En:   0.000D+00 0.000D+00 0.100D+01
 Coeff:      0.000D+00 0.000D+00 0.100D+01
 Gap=     0.105 Goal=   None    Shift=    0.000
 RMSDP=3.92D-03 MaxDP=5.68D-01 DE=-2.26D-01 OVMax= 2.37D-01

 Cycle   4  Pass 1  IDiag  1:
 RMSU=  1.11D-03    CP:  1.08D+00  9.77D-01  4.20D-01
 E= -875.636184222085     Delta-E=        0.328813937663 Rises=F Damp=F
 DIIS: error= 2.70D-02 at cycle   4 NSaved=   4.
 NSaved= 4 IEnMin= 3 EnMin= -875.964998159748     IErMin= 2 ErrMin= 8.49D-03
 ErrMax= 2.70D-02  0.00D+00 EMaxC= 1.00D-01 BMatC= 4.93D-01 BMatP= 7.53D-02
 IDIUse=2 WtCom= 0.00D+00 WtEn= 1.00D+00
 Coeff-En:   0.000D+00 0.000D+00 0.794D+00 0.206D+00
 Coeff:      0.000D+00 0.000D+00 0.794D+00 0.206D+00
 Gap=     0.094 Goal=   None    Shift=    0.000
 RMSDP=2.81D-03 MaxDP=4.27D-01 DE= 3.29D-01 OVMax= 1.34D-01

 Cycle   5  Pass 1  IDiag  1:
 RMSU=  1.54D-04    CP:  1.03D+00  5.04D-01  7.91D-01  5.15D-01
 E= -876.007970663828     Delta-E=       -0.371786441743 Rises=F Damp=F
 DIIS: error= 6.83D-03 at cycle   5 NSaved=   5.
 NSaved= 5 IEnMin= 5 EnMin= -876.007970663828     IErMin= 5 ErrMin= 6.83D-03
 ErrMax= 6.83D-03  0.00D+00 EMaxC= 1.00D-01 BMatC= 3.49D-02 BMatP= 7.53D-02
 IDIUse=3 WtCom= 9.32D-01 WtEn= 6.83D-02
 Coeff-Com:  0.551D-04 0.144D-01 0.312D+00-0.753D-01 0.748D+00
 Coeff-En:   0.000D+00 0.000D+00 0.334D+00 0.000D+00 0.666D+00
 Coeff:      0.514D-04 0.135D-01 0.314D+00-0.702D-01 0.743D+00
 Gap=     0.088 Goal=   None    Shift=    0.000
 RMSDP=4.65D-04 MaxDP=5.46D-02 DE=-3.72D-01 OVMax= 4.66D-02

 Cycle   6  Pass 1  IDiag  1:
 RMSU=  4.76D-05    CP:  1.02D+00  4.36D-01  8.78D-01  3.10D-01  7.51D-01
 E= -876.036857472133     Delta-E=       -0.028886808305 Rises=F Damp=F
 DIIS: error= 8.21D-04 at cycle   6 NSaved=   6.
 NSaved= 6 IEnMin= 6 EnMin= -876.036857472133     IErMin= 6 ErrMin= 8.21D-04
 ErrMax= 8.21D-04  0.00D+00 EMaxC= 1.00D-01 BMatC= 2.03D-04 BMatP= 3.49D-02
 IDIUse=3 WtCom= 9.92D-01 WtEn= 8.21D-03
 Coeff-Com: -0.276D-02 0.112D-01 0.145D+00-0.619D-01 0.443D+00 0.466D+00
 Coeff-En:   0.000D+00 0.000D+00 0.000D+00 0.000D+00 0.000D+00 0.100D+01
 Coeff:     -0.274D-02 0.112D-01 0.144D+00-0.614D-01 0.439D+00 0.470D+00
 Gap=     0.089 Goal=   None    Shift=    0.000
 RMSDP=2.97D-05 MaxDP=3.64D-03 DE=-2.89D-02 OVMax= 5.89D-03

 Cycle   7  Pass 1  IDiag  1:
 RMSU=  1.06D-05    CP:  1.02D+00  4.32D-01  8.77D-01  3.16D-01  7.86D-01
                    CP:  6.57D-01
 E= -876.037063845993     Delta-E=       -0.000206373860 Rises=F Damp=F
 DIIS: error= 1.81D-04 at cycle   7 NSaved=   7.
 NSaved= 7 IEnMin= 7 EnMin= -876.037063845993     IErMin= 7 ErrMin= 1.81D-04
 ErrMax= 1.81D-04  0.00D+00 EMaxC= 1.00D-01 BMatC= 1.06D-05 BMatP= 2.03D-04
 IDIUse=3 WtCom= 9.98D-01 WtEn= 1.81D-03
 Coeff-Com: -0.454D-03 0.182D-02 0.362D-01-0.174D-01 0.111D+00 0.179D+00
 Coeff-Com:  0.690D+00
 Coeff-En:   0.000D+00 0.000D+00 0.000D+00 0.000D+00 0.000D+00 0.000D+00
 Coeff-En:   0.100D+01
 Coeff:     -0.453D-03 0.181D-02 0.361D-01-0.174D-01 0.111D+00 0.178D+00
 Coeff:      0.691D+00
 Gap=     0.089 Goal=   None    Shift=    0.000
 RMSDP=1.54D-05 MaxDP=2.36D-03 DE=-2.06D-04 OVMax= 8.19D-04

 Cycle   8  Pass 1  IDiag  1:
 RMSU=  4.54D-06    CP:  1.02D+00  4.30D-01  8.78D-01  3.16D-01  7.82D-01
                    CP:  6.29D-01  9.55D-01
 E= -876.037071873058     Delta-E=       -0.000008027065 Rises=F Damp=F
 DIIS: error= 5.79D-05 at cycle   8 NSaved=   8.
 NSaved= 8 IEnMin= 8 EnMin= -876.037071873058     IErMin= 8 ErrMin= 5.79D-05
 ErrMax= 5.79D-05  0.00D+00 EMaxC= 1.00D-01 BMatC= 1.83D-06 BMatP= 1.06D-05
 IDIUse=1 WtCom= 1.00D+00 WtEn= 0.00D+00
 Coeff-Com:  0.243D-03-0.925D-03 0.645D-02-0.288D-02 0.163D-01 0.546D-01
 Coeff-Com:  0.396D+00 0.530D+00
 Coeff:      0.243D-03-0.925D-03 0.645D-02-0.288D-02 0.163D-01 0.546D-01
 Coeff:      0.396D+00 0.530D+00
 Gap=     0.089 Goal=   None    Shift=    0.000
 RMSDP=3.91D-06 MaxDP=5.46D-04 DE=-8.03D-06 OVMax= 3.48D-04

 Cycle   9  Pass 1  IDiag  1:
 RMSU=  1.14D-06    CP:  1.02D+00  4.30D-01  8.78D-01  3.15D-01  7.78D-01
                    CP:  6.56D-01  1.00D+00  7.67D-01
 E= -876.037073663405     Delta-E=       -0.000001790346 Rises=F Damp=F
 DIIS: error= 9.45D-06 at cycle   9 NSaved=   9.
 NSaved= 9 IEnMin= 9 EnMin= -876.037073663405     IErMin= 9 ErrMin= 9.45D-06
 ErrMax= 9.45D-06  0.00D+00 EMaxC= 1.00D-01 BMatC= 4.68D-08 BMatP= 1.83D-06
 IDIUse=1 WtCom= 1.00D+00 WtEn= 0.00D+00
 Coeff-Com:  0.115D-03-0.446D-03 0.810D-03-0.282D-03 0.113D-02 0.143D-01
 Coeff-Com:  0.111D+00 0.212D+00 0.662D+00
 Coeff:      0.115D-03-0.446D-03 0.810D-03-0.282D-03 0.113D-02 0.143D-01
 Coeff:      0.111D+00 0.212D+00 0.662D+00
 Gap=     0.089 Goal=   None    Shift=    0.000
 RMSDP=5.36D-07 MaxDP=6.10D-05 DE=-1.79D-06 OVMax= 8.53D-05

 Cycle  10  Pass 1  IDiag  1:
 RMSU=  2.98D-07    CP:  1.02D+00  4.30D-01  8.78D-01  3.15D-01  7.78D-01
                    CP:  6.59D-01  1.01D+00  7.74D-01  9.04D-01
 E= -876.037073702858     Delta-E=       -0.000000039453 Rises=F Damp=F
 DIIS: error= 2.92D-06 at cycle  10 NSaved=  10.
 NSaved=10 IEnMin=10 EnMin= -876.037073702858     IErMin=10 ErrMin= 2.92D-06
 ErrMax= 2.92D-06  0.00D+00 EMaxC= 1.00D-01 BMatC= 8.12D-09 BMatP= 4.68D-08
 IDIUse=1 WtCom= 1.00D+00 WtEn= 0.00D+00
 Coeff-Com:  0.117D-04-0.345D-04-0.848D-03 0.291D-03-0.244D-02 0.116D-03
 Coeff-Com:  0.197D-02 0.375D-01 0.325D+00 0.639D+00
 Coeff:      0.117D-04-0.345D-04-0.848D-03 0.291D-03-0.244D-02 0.116D-03
 Coeff:      0.197D-02 0.375D-01 0.325D+00 0.639D+00
 Gap=     0.089 Goal=   None    Shift=    0.000
 RMSDP=1.82D-07 MaxDP=1.35D-05 DE=-3.95D-08 OVMax= 3.04D-05

 Cycle  11  Pass 1  IDiag  1:
 RMSU=  1.13D-07    CP:  1.02D+00  4.30D-01  8.78D-01  3.15D-01  7.78D-01
                    CP:  6.59D-01  1.01D+00  7.85D-01  9.40D-01  9.24D-01
 E= -876.037073710055     Delta-E=       -0.000000007196 Rises=F Damp=F
 DIIS: error= 9.79D-07 at cycle  11 NSaved=  11.
 NSaved=11 IEnMin=11 EnMin= -876.037073710055     IErMin=11 ErrMin= 9.79D-07
 ErrMax= 9.79D-07  0.00D+00 EMaxC= 1.00D-01 BMatC= 5.38D-10 BMatP= 8.12D-09
 IDIUse=1 WtCom= 1.00D+00 WtEn= 0.00D+00
 Coeff-Com: -0.812D-05 0.181D-04-0.299D-03 0.103D-03-0.752D-03-0.820D-04
 Coeff-Com: -0.527D-02 0.881D-03 0.746D-01 0.206D+00 0.725D+00
 Coeff:     -0.812D-05 0.181D-04-0.299D-03 0.103D-03-0.752D-03-0.820D-04
 Coeff:     -0.527D-02 0.881D-03 0.746D-01 0.206D+00 0.725D+00
 Gap=     0.089 Goal=   None    Shift=    0.000
 RMSDP=1.17D-07 MaxDP=1.63D-05 DE=-7.20D-09 OVMax= 1.39D-05

 Cycle  12  Pass 1  IDiag  1:
 RMSU=  3.20D-08    CP:  1.02D+00  4.30D-01  8.78D-01  3.15D-01  7.78D-01
                    CP:  6.60D-01  1.01D+00  7.86D-01  9.47D-01  9.74D-01
                    CP:  9.82D-01
 E= -876.037073710431     Delta-E=       -0.000000000376 Rises=F Damp=F
 DIIS: error= 6.06D-07 at cycle  12 NSaved=  12.
 NSaved=12 IEnMin=12 EnMin= -876.037073710431     IErMin=12 ErrMin= 6.06D-07
 ErrMax= 6.06D-07  0.00D+00 EMaxC= 1.00D-01 BMatC= 1.57D-10 BMatP= 5.38D-10
 IDIUse=1 WtCom= 1.00D+00 WtEn= 0.00D+00
 Coeff-Com: -0.882D-05 0.191D-04-0.464D-04 0.184D-04-0.586D-04-0.434D-04
 Coeff-Com: -0.410D-02-0.682D-02-0.130D-01 0.783D-02 0.471D+00 0.546D+00
 Coeff:     -0.882D-05 0.191D-04-0.464D-04 0.184D-04-0.586D-04-0.434D-04
 Coeff:     -0.410D-02-0.682D-02-0.130D-01 0.783D-02 0.471D+00 0.546D+00
 Gap=     0.089 Goal=   None    Shift=    0.000
 RMSDP=5.09D-08 MaxDP=7.54D-06 DE=-3.76D-10 OVMax= 3.88D-06

 Cycle  13  Pass 1  IDiag  1:
 RMSU=  1.23D-08    CP:  1.02D+00  4.30D-01  8.78D-01  3.15D-01  7.78D-01
                    CP:  6.60D-01  1.01D+00  7.85D-01  9.51D-01  9.89D-01
                    CP:  1.04D+00  9.10D-01
 E= -876.037073710571     Delta-E=       -0.000000000140 Rises=F Damp=F
 DIIS: error= 1.03D-07 at cycle  13 NSaved=  13.
 NSaved=13 IEnMin=13 EnMin= -876.037073710571     IErMin=13 ErrMin= 1.03D-07
 ErrMax= 1.03D-07  0.00D+00 EMaxC= 1.00D-01 BMatC= 1.94D-12 BMatP= 1.57D-10
 IDIUse=1 WtCom= 1.00D+00 WtEn= 0.00D+00
 Coeff-Com: -0.170D-05 0.374D-05 0.942D-06 0.488D-06 0.117D-04-0.249D-04
 Coeff-Com: -0.606D-03-0.140D-02-0.695D-02-0.142D-01 0.741D-01 0.136D+00
 Coeff-Com:  0.813D+00
 Coeff:     -0.170D-05 0.374D-05 0.942D-06 0.488D-06 0.117D-04-0.249D-04
 Coeff:     -0.606D-03-0.140D-02-0.695D-02-0.142D-01 0.741D-01 0.136D+00
 Coeff:      0.813D+00
 Gap=     0.089 Goal=   None    Shift=    0.000
 RMSDP=6.52D-09 MaxDP=7.45D-07 DE=-1.40D-10 OVMax= 2.02D-06

 Error on total polarization charges =  0.01862
 SCF Done:  E(RB3LYP) =  -876.037073711     A.U. after   13 cycles
            NFock= 13  Conv=0.65D-08     -V/T= 2.0051
 KE= 8.715700321839D+02 PE=-4.797494813961D+03 EE= 1.671262312459D+03
 Leave Link  502 at Wed Mar 22 08:54:24 2023, MaxMem= 64424509440 cpu:            2504.2 elap:              33.6
 (Enter /sob/g16/l801.exe)
 DoSCS=F DFT=T ScalE2(SS,OS)=  1.000000  1.000000
 ExpMin= 9.52D-02 ExpMax= 2.70D+04 ExpMxC= 9.22D+02 IAcc=3 IRadAn=         5 AccDes= 0.00D+00
 HarFok:  IExCor=  205 AccDes= 0.00D+00 IRadAn=         5 IDoV=-2 UseB2=F ITyADJ=14
 ICtDFT= 12500011 ScaDFX=  1.000000  1.000000  1.000000  1.000000
 Largest valence mixing into a core orbital is  5.91D-05
 Largest core mixing into a valence orbital is  1.15D-05
 Range of M.O.s used for correlation:    21   680
 NBasis=   680 NAE=    68 NBE=    68 NFC=    20 NFV=     0
 NROrb=    660 NOA=    48 NOB=    48 NVA=   612 NVB=   612

 **** Warning!!: The largest alpha MO coefficient is  0.57308199D+02


 **** Warning!!: The smallest alpha delta epsilon is  0.88616538D-01

 Leave Link  801 at Wed Mar 22 08:54:25 2023, MaxMem= 64424509440 cpu:               6.7 elap:               0.1
 (Enter /sob/g16/l914.exe)
 RHF ground state
 Two-electron integrals replicated using symmetry.
 MDV= 64424509440 DFT=T DoStab=F Mixed=T DoRPA=T DoScal=F NonHer=T
 NEqPCM:  Using non-equilibrium solvation (IEInf=1, Eps=  78.3553, EpsInf=   1.7778)
 Inv3:  Mode=1 IEnd=    18930432.
 Iteration    1 A*A^-1 deviation from unit magnitude is 3.89D-15 for    369.
 Iteration    1 A*A^-1 deviation from orthogonality  is 1.83D-15 for   1890   1671.
 Iteration    1 A^-1*A deviation from unit magnitude is 3.89D-15 for    369.
 Iteration    1 A^-1*A deviation from orthogonality  is 1.92D-15 for   1646   1127.
 Making orbital integer symmetry assigments:
 Orbital symmetries:
       Occupied  (BU) (AG) (BU) (AG) (BU) (AG) (AG) (BU) (BU) (AG)
                 (BU) (AG) (BU) (AG) (BU) (AG) (BU) (AG) (BU) (AG)
                 (AG) (BU) (AG) (BU) (AG) (BU) (AG) (BU) (AG) (BU)
                 (AG) (BU) (AG) (BU) (AG) (BU) (BU) (AG) (AG) (BU)
                 (BU) (AG) (AG) (AU) (AG) (BU) (BU) (BU) (AG) (BG)
                 (BU) (AG) (AG) (BG) (AU) (BU) (AG) (AU) (AG) (BU)
                 (BG) (BU) (AU) (BG) (AU) (AG) (BG) (AU)
       Virtual   (BG) (AU) (BG) (AU) (BG) (AU) (AG) (BU) (BU) (AG)
                 (AG) (BU) (BU) (AG) (AG) (BU) (BG) (AG) (BU) (AG)
                 (BU) (BG) (AU) (AG) (BU) (AU) (BU) (BG) (AG) (BU)
                 (AG) (BU) (AU) (BU) (AG) (AG) (BG) (AU) (BU) (AG)
                 (BG) (AG) (AG) (BU) (BU) (BG) (AU) (BU) (AG) (BU)
                 (AG) (AU) (BU) (BU) (AG) (BG) (AU) (AG) (BU) (BG)
                 (BU) (AG) (BU) (AG) (BU) (AG) (AU) (BG) (BU) (AG)
                 (AG) (BU) (BU) (AU) (AG) (BG) (AG) (BU) (AG) (BG)
                 (AG) (BU) (AG) (BU) (AU) (BU) (AG) (BU) (BU) (AG)
                 (AG) (BU) (AU) (BG) (AG) (BU) (AG) (BU) (BG) (AG)
                 (AU) (AG) (BU) (BU) (AG) (BU) (AG) (AG) (BU) (AU)
                 (BU) (AG) (BU) (BG) (BU) (BG) (AG) (AG) (AU) (AG)
                 (AU) (BU) (AG) (BU) (BG) (BU) (AG) (BG) (BU) (AU)
                 (AG) (BU) (AG) (BG) (BU) (AG) (BU) (AU) (BU) (AG)
                 (AU) (BU) (BG) (AU) (AG) (BU) (AG) (AG) (BU) (AG)
                 (BU) (AG) (BG) (BU) (AG) (AG) (BG) (BU) (AU) (BU)
                 (AG) (AG) (BG) (AU) (BU) (AU) (AG) (BG) (BU) (AG)
                 (AU) (BU) (BG) (BU) (AG) (BU) (BG) (AG) (AU) (BU)
                 (AG) (BU) (AU) (AG) (AG) (BU) (BG) (BU) (AG) (AU)
                 (AG) (BU) (BG) (AU) (AG) (BU) (AG) (BU) (BG) (AG)
                 (AU) (BU) (BU) (AG) (AU) (BU) (BG) (AG) (BG) (AU)
                 (BU) (BG) (AU) (AG) (BU) (AG) (BU) (BU) (AG) (BG)
                 (BU) (AG) (AU) (BG) (BU) (BG) (AU) (AG) (BU) (AG)
                 (AU) (BG) (AG) (AU) (AG) (BU) (BU) (BU) (AG) (BG)
                 (BU) (AG) (AU) (BG) (BU) (BG) (AG) (AU) (BG) (BU)
                 (AU) (AU) (BG) (AG) (BU) (AG) (BU) (AG) (BG) (AU)
                 (BG) (AG) (AU) (AG) (BU) (BU) (BG) (AU) (AG) (BU)
                 (BU) (AG) (BU) (AG) (AU) (AG) (AG) (BU) (BG) (BU)
                 (AG) (AG) (BU) (BU) (AG) (BU) (BG) (BU) (AG) (AG)
                 (BU) (AU) (AG) (AU) (BU) (BG) (AU) (BG) (AG) (BU)
                 (AG) (BU) (BU) (AG) (AG) (AU) (BU) (BG) (AG) (BU)
                 (BU) (AG) (BU) (AG) (AU) (BU) (AG) (BG) (AG) (AG)
                 (BU) (BG) (BU) (AU) (AG) (AU) (BG) (BU) (AU) (BG)
                 (AG) (BU) (AG) (AU) (BG) (AG) (AU) (BU) (BU) (AG)
                 (BU) (AG) (BU) (BG) (BG) (BU) (AU) (AG) (AU) (AG)
                 (BU) (BG) (AU) (AG) (BU) (AG) (BG) (BU) (AU) (AG)
                 (BU) (AG) (BG) (BG) (AU) (BU) (AU) (AG) (BU) (BG)
                 (AG) (AU) (BG) (AU) (AG) (BU) (BG) (AG) (BU) (AU)
                 (BU) (BG) (AG) (AU) (BU) (BG) (AG) (AG) (BU) (AU)
                 (BG) (BU) (AG) (AU) (BG) (AG) (BU) (BU) (BG) (AU)
                 (AG) (AG) (AU) (BU) (BG) (AG) (BU) (AG) (BU) (BG)
                 (BU) (AU) (AG) (AU) (BU) (BG) (AG) (AG) (AU) (AU)
                 (BG) (BU) (BG) (AG) (BU) (AG) (AU) (BU) (AG) (BU)
                 (BG) (BU) (BU) (AG) (BG) (AG) (AU) (BU) (AG) (BU)
                 (AU) (BG) (AU) (BU) (AG) (AG) (BU) (AG) (BG) (BU)
                 (AU) (AG) (AG) (BU) (BG) (BU) (AG) (AG) (AU) (BU)
                 (AG) (BG) (AU) (BU) (BU) (AG) (BU) (BU) (AG) (BG)
                 (AG) (AG) (BU) (AG) (BG) (BU) (BU) (AU) (AG) (AU)
                 (AG) (BU) (AG) (BU) (BG) (AU) (BU) (BG) (AU) (BG)
                 (BU) (BG) (AG) (AU) (BU) (AG) (BU) (AU) (AG) (BG)
                 (BU) (AG) (BU) (AG) (AG) (BU) (AG) (AU) (BG) (AU)
                 (BU) (AG) (BU) (BG) (AG) (BU) (AG) (BU) (BU) (AU)
                 (BG) (AG) (AG) (BU) (AU) (AG) (BG) (AG) (BU) (BG)
                 (AU) (BU) (AG) (BU) (AG) (BU) (AU) (AG) (BG) (BU)
                 (BU) (BG) (AG) (BU) (AG) (AU) (BG) (AG) (AU) (BU)
                 (AG) (BU) (AG) (BU) (AG) (BU) (BU) (AG) (BU) (AG)
                 (AG) (BU) (BG) (AU) (AG) (BU) (AG) (BU) (BU) (AG)
                 (BU) (AG) (AG) (BU) (BU) (AU) (BG) (AG) (BG) (AU)
                 (AG) (BU) (BU) (AG) (BU) (AU) (BG) (AG) (BU) (AG)
                 (BU) (AG) (AG) (BU) (AG) (BU) (AG) (BU) (AG) (BU)
                 (BU) (AG) (AG) (BU) (AG) (BU) (AG) (BU) (AG) (BU)
                 (AG) (BU)
    80 initial guesses have been made.
 Convergence on wavefunction:    0.001000000000000
 Davidson Disk Diagonalization:  ConvIn= 1.00D-03 SkipCon=T Conv= 1.00D-03.
 Max sub-space:  2000 roots to seek:    80 dimension of matrix:        58752
 Iteration     1 Dimension    80 NMult     0 NNew     80
 CISAX will form    80 AO SS matrices at one time.
 NMat=    80 NSing=    80 JSym2X=-1.
 FoFJK:  IHMeth= 1 ICntrl=       0 DoSepK=F KAlg= 0 I1Cent=           0 FoldK=F
 IRaf= 780000000 NMat=     160 IRICut=     200 DoRegI=T DoRafI=T ISym2E=-1 IDoP0=3 IntGTp=3.
 New state      3 was old state      4
 New state      4 was old state      8
 New state      5 was old state      3
 New state      6 was old state      5
 New state      7 was old state      6
 New state      8 was old state      7
 New state      9 was old state     10
 New state     10 was old state      9
 New state     11 was old state     13
 New state     12 was old state     11
 New state     13 was old state     12
 New state     14 was old state     18
 New state     16 was old state     19
 New state     17 was old state     16
 New state     18 was old state     17
 New state     19 was old state     23
 New state     20 was old state     24
 Excitation Energies [eV] at current iteration:
 Root      1 :     2.409066832944383
 Root      2 :     2.728355382084119
 Root      3 :     2.976976834580657
 Root      4 :     3.454006452407484
 Root      5 :     3.716315425421335
 Root      6 :     3.833247354567524
 Root      7 :     4.066717379224017
 Root      8 :     4.205515173647328
 Root      9 :     4.553892917663312
 Root     10 :     4.727607916805298
 Root     11 :     4.936324542866219
 Root     12 :     5.082453672112861
 Root     13 :     5.375013832302605
 Root     14 :     5.462405132190082
 Root     15 :     5.534296483217311
 Root     16 :     5.763954385715439
 Root     17 :     5.784475469187742
 Root     18 :     5.821450019476732
 Root     19 :     5.950298567708584
 Root     20 :     5.952800196267663
 Root     21 :     5.973592749396328
 Root     22 :     6.014936692776311
 Root     23 :     6.107230605941188
 Root     24 :     6.215435653984322
 Root     25 :     6.315639046855457
 Root     26 :     6.330896295575850
 Root     27 :     6.378724308659592
 Root     28 :     6.410532805693462
 Root     29 :     6.464128314025578
 Root     30 :     6.517415445857435
 Root     31 :     6.562917123865324
 Root     32 :     6.589558446292670
 Root     33 :     6.594737856808170
 Root     34 :     6.616331811174311
 Root     35 :     6.622103632803642
 Root     36 :     6.700896186087832
 Root     37 :     6.832891048260633
 Root     38 :     6.908358695297348
 Root     39 :     6.934400045200282
 Root     40 :     6.990539485641079
 Root     41 :     7.069741901262400
 Root     42 :     7.107003559260610
 Root     43 :     7.116188415252677
 Root     44 :     7.222681897301659
 Root     45 :     7.237477169859824
 Root     46 :     7.288359910878964
 Root     47 :     7.341001262544280
 Root     48 :     7.362566588145772
 Root     49 :     7.381438413359724
 Root     50 :     7.461621328469869
 Root     51 :     7.466901202963726
 Root     52 :     7.536608197734435
 Root     53 :     7.540372045153552
 Root     54 :     7.576032372150558
 Root     55 :     7.586940024367620
 Root     56 :     7.637791794088804
 Root     57 :     7.649702475267747
 Root     58 :     7.713013625076373
 Root     59 :     7.785933631917635
 Root     60 :     7.837243434473964
 Root     61 :     7.848587715706821
 Root     62 :     7.862478196274171
 Root     63 :     7.876166329026391
 Root     64 :     7.902317197053867
 Root     65 :     7.911383566624521
 Root     66 :     7.927269445292675
 Root     67 :     7.974252515766514
 Root     68 :     8.016129199411804
 Root     69 :     8.083349003746799
 Root     70 :     8.101373005905714
 Root     71 :     8.137999423776535
 Root     72 :     8.191622266601042
 Root     73 :     8.288306205672884
 Root     74 :     8.308766177497892
 Root     75 :     8.342346652465181
 Root     76 :     8.445935473418560
 Root     77 :     8.596966229603566
 Root     78 :     8.754714198580828
 Root     79 :     8.939544060784392
 Root     80 :     9.284344886142103
 Iteration     2 Dimension   120 NMult    80 NNew     40
 CISAX will form    40 AO SS matrices at one time.
 NMat=    40 NSing=    40 JSym2X=-1.
 Root      1 not converged, maximum delta is    0.072600659107076
 Root      2 not converged, maximum delta is    0.044356774791239
 Root      3 not converged, maximum delta is    0.040735019399286
 Root      4 not converged, maximum delta is    0.013902138846676
 Root      5 not converged, maximum delta is    0.097154349912761
 Root      6 not converged, maximum delta is    0.057114586587923
 Root      7 not converged, maximum delta is    0.088488465982008
 Root      8 not converged, maximum delta is    0.130687456005455
 Root      9 not converged, maximum delta is    0.124052208329027
 Root     10 not converged, maximum delta is    0.119423036041449
 Root     11 not converged, maximum delta is    0.023338967122802
 Root     12 not converged, maximum delta is    0.064993349239517
 Root     13 not converged, maximum delta is    0.071114439153801
 Root     14 not converged, maximum delta is    0.058622763818108
 Root     15 not converged, maximum delta is    0.107204526287396
 New state     16 was old state     17
 Root     16 not converged, maximum delta is    0.114910912746508
 New state     17 was old state     16
 Root     17 not converged, maximum delta is    0.201457831231256
 Root     18 not converged, maximum delta is    0.077728850326421
 New state     19 was old state     21
 Root     19 not converged, maximum delta is    0.233765913389919
 New state     20 was old state     19
 Root     20 not converged, maximum delta is    0.021646006790641
 Excitation Energies [eV] at current iteration:
 Root      1 :     2.122585418959507   Change is   -0.286481413984876
 Root      2 :     2.624698619086099   Change is   -0.103656762998020
 Root      3 :     2.922177736346043   Change is   -0.054799098234614
 Root      4 :     3.410025565692095   Change is   -0.043980886715389
 Root      5 :     3.530101854855635   Change is   -0.186213570565700
 Root      6 :     3.697580214134178   Change is   -0.135667140433345
 Root      7 :     3.874400018688909   Change is   -0.192317360535108
 Root      8 :     4.000518685413536   Change is   -0.204996488233791
 Root      9 :     4.454522315173467   Change is   -0.099370602489845
 Root     10 :     4.506739887632359   Change is   -0.220868029172939
 Root     11 :     4.915852893190927   Change is   -0.020471649675292
 Root     12 :     4.938237918638876   Change is   -0.144215753473985
 Root     13 :     5.205018472906687   Change is   -0.169995359395917
 Root     14 :     5.415903014045997   Change is   -0.046502118144084
 Root     15 :     5.433594229551590   Change is   -0.100702253665721
 Root     16 :     5.591628074281497   Change is   -0.192847394906244
 Root     17 :     5.637384067203459   Change is   -0.126570318511980
 Root     18 :     5.695761816112229   Change is   -0.125688203364503
 Root     19 :     5.774573484577133   Change is   -0.199019264819195
 Root     20 :     5.923191004413662   Change is   -0.027107563294922
 Iteration     3 Dimension   160 NMult   120 NNew     40
 CISAX will form    40 AO SS matrices at one time.
 NMat=    40 NSing=    40 JSym2X=-1.
 Root      1 not converged, maximum delta is    0.004017962523947
 Root      2 not converged, maximum delta is    0.002079327033434
 Root      3 not converged, maximum delta is    0.002240989110205
 Root      4 not converged, maximum delta is    0.001385916632917
 Root      5 not converged, maximum delta is    0.003622249369412
 Root      6 not converged, maximum delta is    0.003486364029863
 Root      7 not converged, maximum delta is    0.008947109773196
 Root      8 not converged, maximum delta is    0.007750662152300
 Root      9 not converged, maximum delta is    0.028839369502614
 Root     10 not converged, maximum delta is    0.029403868260020
 Root     11 not converged, maximum delta is    0.001852935124193
 Root     12 not converged, maximum delta is    0.012109348317717
 Root     13 not converged, maximum delta is    0.016173776714918
 Root     14 not converged, maximum delta is    0.004158548700023
 Root     15 not converged, maximum delta is    0.007223429498708
 Root     16 not converged, maximum delta is    0.027072773433215
 Root     17 not converged, maximum delta is    0.211912243309339
 Root     18 not converged, maximum delta is    0.485159431272633
 Root     19 not converged, maximum delta is    0.206242170990697
 Root     20 not converged, maximum delta is    0.002978171107237
 Excitation Energies [eV] at current iteration:
 Root      1 :     2.111414192075540   Change is   -0.011171226883968
 Root      2 :     2.622591053849671   Change is   -0.002107565236428
 Root      3 :     2.920968298731478   Change is   -0.001209437614565
 Root      4 :     3.408138247764096   Change is   -0.001887317927999
 Root      5 :     3.524642034753157   Change is   -0.005459820102477
 Root      6 :     3.692592642898383   Change is   -0.004987571235796
 Root      7 :     3.866061265127489   Change is   -0.008338753561421
 Root      8 :     3.989182537432864   Change is   -0.011336147980671
 Root      9 :     4.449717068855058   Change is   -0.004805246318408
 Root     10 :     4.495439282853825   Change is   -0.011300604778534
 Root     11 :     4.914985736863934   Change is   -0.000867156326993
 Root     12 :     4.931914970759989   Change is   -0.006322947878888
 Root     13 :     5.193783789307332   Change is   -0.011234683599355
 Root     14 :     5.414109618674557   Change is   -0.001793395371440
 Root     15 :     5.429753121587113   Change is   -0.003841107964477
 Root     16 :     5.573252986068506   Change is   -0.018375088212992
 Root     17 :     5.589817472491215   Change is   -0.047566594712244
 Root     18 :     5.667827796626355   Change is   -0.027934019485873
 Root     19 :     5.710292304767846   Change is   -0.064281179809287
 Root     20 :     5.922214063736514   Change is   -0.000976940677148
 Iteration     4 Dimension   200 NMult   160 NNew     40
 CISAX will form    40 AO SS matrices at one time.
 NMat=    40 NSing=    40 JSym2X=-1.
 Root      1 has converged.
 Root      2 has converged.
 Root      3 has converged.
 Root      4 has converged.
 Root      5 has converged.
 Root      6 has converged.
 Root      7 has converged.
 Root      8 not converged, maximum delta is    0.001053990591069
 Root      9 has converged.
 Root     10 not converged, maximum delta is    0.001008794759480
 Root     11 has converged.
 Root     12 has converged.
 Root     13 has converged.
 Root     14 has converged.
 Root     15 has converged.
 Root     16 not converged, maximum delta is    0.004123207173946
 Root     17 not converged, maximum delta is    0.010433760145071
 Root     18 not converged, maximum delta is    0.012439607254611
 Root     19 not converged, maximum delta is    0.005623694445640
 Root     20 has converged.
 Excitation Energies [eV] at current iteration:
 Root      1 :     2.111099652784958   Change is   -0.000314539290581
 Root      2 :     2.622511308575740   Change is   -0.000079745273931
 Root      3 :     2.920927538905865   Change is   -0.000040759825613
 Root      4 :     3.408082271947582   Change is   -0.000055975816514
 Root      5 :     3.524338135527500   Change is   -0.000303899225658
 Root      6 :     3.692409827112127   Change is   -0.000182815786256
 Root      7 :     3.865756841930688   Change is   -0.000304423196801
 Root      8 :     3.988416217443238   Change is   -0.000766319989626
 Root      9 :     4.449410129165735   Change is   -0.000306939689323
 Root     10 :     4.494960268355472   Change is   -0.000479014498353
 Root     11 :     4.914942310468594   Change is   -0.000043426395341
 Root     12 :     4.931549585090647   Change is   -0.000365385669342
 Root     13 :     5.193076860656541   Change is   -0.000706928650791
 Root     14 :     5.413984308521112   Change is   -0.000125310153446
 Root     15 :     5.429448463499926   Change is   -0.000304658087187
 Root     16 :     5.571537823451811   Change is   -0.001715162616695
 Root     17 :     5.586373606634346   Change is   -0.003443865856870
 Root     18 :     5.666331748613376   Change is   -0.001496048012979
 Root     19 :     5.709335198606857   Change is   -0.000957106160989
 Root     20 :     5.922122930599498   Change is   -0.000091133137016
 Iteration     5 Dimension   212 NMult   200 NNew     12
 CISAX will form    12 AO SS matrices at one time.
 NMat=    12 NSing=    12 JSym2X=-1.
 Root      1 has converged.
 Root      2 has converged.
 Root      3 has converged.
 Root      4 has converged.
 Root      5 has converged.
 Root      6 has converged.
 Root      7 has converged.
 Root      8 has converged.
 Root      9 has converged.
 Root     10 has converged.
 Root     11 has converged.
 Root     12 has converged.
 Root     13 has converged.
 Root     14 has converged.
 Root     15 has converged.
 Root     16 has converged.
 Root     17 has converged.
 Root     18 has converged.
 Root     19 has converged.
 Root     20 has converged.
 Excitation Energies [eV] at current iteration:
 Root      1 :     2.111096593250857   Change is   -0.000003059534101
 Root      2 :     2.622510859939139   Change is   -0.000000448636602
 Root      3 :     2.920927538906061   Change is    0.000000000000197
 Root      4 :     3.408082271947413   Change is   -0.000000000000168
 Root      5 :     3.524335105521019   Change is   -0.000003030006481
 Root      6 :     3.692407382298631   Change is   -0.000002444813496
 Root      7 :     3.865751119903807   Change is   -0.000005722026881
 Root      8 :     3.988395556231468   Change is   -0.000020661211770
 Root      9 :     4.449404822955500   Change is   -0.000005306210236
 Root     10 :     4.494944072770121   Change is   -0.000016195585351
 Root     11 :     4.914942310468526   Change is   -0.000000000000067
 Root     12 :     4.931540900686814   Change is   -0.000008684403832
 Root     13 :     5.193064741449799   Change is   -0.000012119206742
 Root     14 :     5.413984308521081   Change is   -0.000000000000031
 Root     15 :     5.429441971061826   Change is   -0.000006492438099
 Root     16 :     5.571457114998184   Change is   -0.000080708453628
 Root     17 :     5.586193338323569   Change is   -0.000180268310777
 Root     18 :     5.666254505827642   Change is   -0.000077242785734
 Root     19 :     5.709283644564406   Change is   -0.000051554042451
 Root     20 :     5.922122930599540   Change is    0.000000000000042
 Convergence achieved on expansion vectors.
 ***********************************************************************
 Excited states from <AA,BB:AA,BB> singles matrix:
 ***********************************************************************
 
 1PDM for each excited state written to RWF  633
 Ground to excited state transition densities written to RWF  633
 Ground to excited state transition electric dipole moments (Au):
       state          X           Y           Z        Dip. S.      Osc.
         1        -0.6796      2.3846      0.0000      6.1480      0.3180
         2        -0.0000     -0.0000     -0.0000      0.0000      0.0000
         3        -0.0000      0.0000     -0.0000      0.0000      0.0000
         4         0.0000      0.0000      0.0080      0.0001      0.0000
         5        -0.0000     -0.0000     -0.0000      0.0000      0.0000
         6        -0.3832     -1.9703     -0.0000      4.0290      0.3645
         7         0.0000     -0.0000     -0.0000      0.0000      0.0000
         8         0.1457     -0.7933     -0.0000      0.6505      0.0636
         9         0.1792      1.2112     -0.0000      1.4991      0.1634
        10         0.8974      2.2620     -0.0000      5.9220      0.6522
        11         0.0000     -0.0000      0.0307      0.0009      0.0001
        12        -0.0000      0.0000     -0.0000      0.0000      0.0000
        13         0.1411      1.1511      0.0000      1.3450      0.1711
        14         0.0000     -0.0000     -0.0000      0.0000      0.0000
        15         0.0000      0.0000     -0.0000      0.0000      0.0000
        16        -0.0766      1.0162      0.0000      1.0385      0.1417
        17        -0.0000     -0.0000     -0.0000      0.0000      0.0000
        18        -0.0000     -0.0000     -0.0000      0.0000      0.0000
        19         0.0000      0.0000      0.0000      0.0000      0.0000
        20         0.0000     -0.0000     -0.0449      0.0020      0.0003
 Ground to excited state transition velocity dipole moments (Au):
       state          X           Y           Z        Dip. S.      Osc.
         1         0.0514     -0.1842     -0.0000      0.0366      0.3141
         2        -0.0000      0.0000      0.0000      0.0000      0.0000
         3        -0.0000     -0.0000      0.0000      0.0000      0.0000
         4        -0.0000     -0.0000      0.0001      0.0000      0.0000
         5         0.0000      0.0000     -0.0000      0.0000      0.0000
         6         0.0514      0.2667      0.0000      0.0738      0.3625
         7        -0.0000      0.0000      0.0000      0.0000      0.0000
         8        -0.0186      0.1151      0.0000      0.0136      0.0618
         9        -0.0281     -0.2042     -0.0000      0.0425      0.1732
        10        -0.1499     -0.3734      0.0000      0.1619      0.6536
        11        -0.0000     -0.0000     -0.0063      0.0000      0.0001
        12         0.0000     -0.0000     -0.0000      0.0000      0.0000
        13        -0.0259     -0.2190     -0.0000      0.0486      0.1698
        14         0.0000     -0.0000      0.0000      0.0000      0.0000
        15        -0.0000     -0.0000     -0.0000      0.0000      0.0000
        16         0.0188     -0.2073     -0.0000      0.0433      0.1411
        17         0.0000      0.0000      0.0000      0.0000      0.0000
        18         0.0000      0.0000     -0.0000      0.0000      0.0000
        19         0.0000     -0.0000      0.0000      0.0000      0.0000
        20        -0.0000      0.0000      0.0099      0.0001      0.0003
 Ground to excited state transition magnetic dipole moments (Au):
       state          X           Y           Z
         1         0.0000      0.0000      0.0000
         2        -0.0000      0.0000     -1.5508
         3         0.7689      0.2279      0.0000
         4        -0.0000     -0.0000     -0.0000
         5        -0.0000     -0.0000      1.2250
         6         0.0000      0.0000      0.0000
         7         0.0000      0.0000     -0.6190
         8         0.0000      0.0000      0.0000
         9         0.0000      0.0000     -0.0000
        10        -0.0000     -0.0000     -0.0000
        11        -0.0000     -0.0000      0.0000
        12        -0.0000      0.0000      0.5189
        13        -0.0000     -0.0000      0.0000
        14         0.4667      0.2908     -0.0000
        15         0.0000     -0.0000      0.0882
        16         0.0000      0.0000      0.0000
        17        -0.0000      0.0000      0.3557
        18        -0.0000     -0.0000      0.4051
        19        -0.0000      0.0000      0.1184
        20         0.0000     -0.0000      0.0000
 Ground to excited state transition velocity quadrupole moments (Au):
       state          XX          YY          ZZ          XY          XZ          YZ
         1         0.0000     -0.0000      0.0000     -0.0000     -0.0000      0.0000
         2        -0.1039      0.2632      0.0052      0.3106     -0.0000     -0.0000
         3        -0.0000     -0.0000     -0.0000     -0.0000     -0.0062      0.0226
         4        -0.0000      0.0000     -0.0000      0.0000      0.0000     -0.0000
         5         0.0767      0.0722      0.0060     -0.5534      0.0000     -0.0000
         6         0.0000     -0.0000     -0.0000      0.0000      0.0000      0.0000
         7        -0.2108      1.7860      0.0119      0.3466     -0.0000      0.0000
         8        -0.0000     -0.0000     -0.0000     -0.0000      0.0000      0.0000
         9        -0.0000      0.0000      0.0000      0.0000     -0.0000      0.0000
        10        -0.0000      0.0000      0.0000      0.0000     -0.0000     -0.0000
        11        -0.0000      0.0000      0.0000     -0.0000      0.0000      0.0000
        12        -0.0398      1.4582      0.0292     -0.0454     -0.0000     -0.0000
        13         0.0000     -0.0000     -0.0000     -0.0000      0.0000     -0.0000
        14        -0.0000      0.0000     -0.0000      0.0000     -0.0192      0.0518
        15        -0.1328      0.2058     -0.0135     -0.2703     -0.0000      0.0000
        16         0.0000      0.0000      0.0000     -0.0000     -0.0000      0.0000
        17        -0.0285     -3.9991     -0.0359     -0.5395     -0.0000     -0.0000
        18        -0.1712      2.2587      0.0113     -0.2056      0.0000     -0.0000
        19         0.0531     -1.2513      0.0076     -0.7205      0.0000     -0.0000
        20         0.0000     -0.0000     -0.0000     -0.0000      0.0000      0.0000
 <0|del|b> * <b|rxdel|0> + <0|del|b> * <b|delr+rdel|0>
 Rotatory Strengths (R) in cgs (10**-40 erg-esu-cm/Gauss)
       state          XX          YY          ZZ    R(velocity)    E-M Angle
         1        -0.0000      0.0000     -0.0000      0.0000       90.00
         2        -0.0000     -0.0000      0.0000     -0.0000       90.00
         3        -0.0000     -0.0000     -0.0000     -0.0000       90.00
         4         0.0000     -0.0000      0.0000     -0.0000       90.00
         5        -0.0000     -0.0000     -0.0000     -0.0000       90.00
         6         0.0000      0.0000      0.0000      0.0000       90.00
         7        -0.0000     -0.0000      0.0000     -0.0000       90.00
         8         0.0000     -0.0000      0.0000      0.0000       90.00
         9        -0.0000     -0.0000      0.0000     -0.0000       90.00
        10        -0.0000      0.0000      0.0000      0.0000       90.00
        11        -0.0000     -0.0000      0.0000     -0.0000       90.00
        12        -0.0000     -0.0000     -0.0000     -0.0000       90.00
        13         0.0000      0.0000      0.0000      0.0000       90.00
        14        -0.0000      0.0000      0.0000      0.0000       90.00
        15         0.0000     -0.0000      0.0000     -0.0000       90.00
        16        -0.0000      0.0000     -0.0000     -0.0000       90.00
        17        -0.0000      0.0000      0.0000      0.0000       90.00
        18        -0.0000     -0.0000      0.0000     -0.0000       90.00
        19        -0.0000      0.0000     -0.0000      0.0000       90.00
        20        -0.0000      0.0000     -0.0000      0.0000       90.00
 1/2[<0|r|b>*<b|rxdel|0> + (<0|rxdel|b>*<b|r|0>)*]
 Rotatory Strengths (R) in cgs (10**-40 erg-esu-cm/Gauss)
       state          XX          YY          ZZ     R(length)
         1         0.0000     -0.0000     -0.0000      0.0000
         2        -0.0000      0.0000     -0.0000     -0.0000
         3         0.0000     -0.0000      0.0000     -0.0000
         4         0.0000      0.0000      0.0000      0.0000
         5        -0.0000     -0.0000      0.0000      0.0000
         6         0.0000      0.0000      0.0000      0.0000
         7        -0.0000      0.0000     -0.0000     -0.0000
         8        -0.0000      0.0000      0.0000      0.0000
         9        -0.0000     -0.0000     -0.0000     -0.0000
        10         0.0000      0.0000     -0.0000      0.0000
        11         0.0000     -0.0000     -0.0000     -0.0000
        12        -0.0000     -0.0000      0.0000      0.0000
        13         0.0000      0.0000     -0.0000      0.0000
        14        -0.0000      0.0000     -0.0000     -0.0000
        15        -0.0000      0.0000      0.0000      0.0000
        16         0.0000     -0.0000     -0.0000     -0.0000
        17        -0.0000      0.0000      0.0000      0.0000
        18        -0.0000     -0.0000      0.0000      0.0000
        19         0.0000     -0.0000     -0.0000     -0.0000
        20        -0.0000     -0.0000      0.0000      0.0000
  1/2[<0|del|b>*<b|r|0> + (<0|r|b>*<b|del|0>)*] (Au)
       state          X           Y           Z        Dip. S.   Osc.(frdel)
         1        -0.0349     -0.4391     -0.0000      0.4741      0.3160
         2         0.0000     -0.0000     -0.0000      0.0000      0.0000
         3         0.0000     -0.0000     -0.0000      0.0000      0.0000
         4        -0.0000     -0.0000      0.0000     -0.0000     -0.0000
         5        -0.0000     -0.0000      0.0000      0.0000      0.0000
         6        -0.0197     -0.5255     -0.0000      0.5452      0.3635
         7        -0.0000     -0.0000     -0.0000      0.0000      0.0000
         8        -0.0027     -0.0913     -0.0000      0.0940      0.0627
         9        -0.0050     -0.2473      0.0000      0.2523      0.1682
        10        -0.1345     -0.8448     -0.0000      0.9793      0.6529
        11        -0.0000      0.0000     -0.0002      0.0002      0.0001
        12        -0.0000     -0.0000      0.0000      0.0000      0.0000
        13        -0.0036     -0.2521     -0.0000      0.2557      0.1705
        14         0.0000      0.0000     -0.0000     -0.0000     -0.0000
        15        -0.0000     -0.0000      0.0000      0.0000      0.0000
        16        -0.0014     -0.2106     -0.0000      0.2121      0.1414
        17        -0.0000     -0.0000     -0.0000      0.0000      0.0000
        18        -0.0000     -0.0000      0.0000      0.0000      0.0000
        19         0.0000     -0.0000      0.0000      0.0000      0.0000
        20        -0.0000     -0.0000     -0.0004      0.0004      0.0003

 Excitation energies and oscillator strengths:
 
 Excited State   1:      Singlet-BU     2.1111 eV  587.30 nm  f=0.3180  <S**2>=0.000
      68 -> 69         0.70779
      68 <- 69        -0.10176
 This state for optimization and/or second-order correction.
 Total Energy, E(TD-HF/TD-DFT) =  -875.959492338    
 Copying the excited state density for this state as the 1-particle RhoCI density.
 
 Excited State   2:      Singlet-AG     2.6225 eV  472.77 nm  f=0.0000  <S**2>=0.000
      67 -> 69         0.70418
 
 Excited State   3:      Singlet-BG     2.9209 eV  424.47 nm  f=0.0000  <S**2>=0.000
      66 -> 69         0.69916
 
 Excited State   4:      Singlet-AU     3.4081 eV  363.79 nm  f=0.0000  <S**2>=0.000
      62 -> 69         0.68961
      66 -> 70         0.13302
 
 Excited State   5:      Singlet-AG     3.5243 eV  351.79 nm  f=0.0000  <S**2>=0.000
      64 -> 69         0.17020
      68 -> 70         0.67997
 
 Excited State   6:      Singlet-BU     3.6924 eV  335.78 nm  f=0.3645  <S**2>=0.000
      65 -> 69         0.68760
 
 Excited State   7:      Singlet-AG     3.8658 eV  320.72 nm  f=0.0000  <S**2>=0.000
      64 -> 69         0.67485
      68 -> 70        -0.17681
 
 Excited State   8:      Singlet-BU     3.9884 eV  310.86 nm  f=0.0636  <S**2>=0.000
      63 -> 69         0.67906
      67 -> 70        -0.13047
 
 Excited State   9:      Singlet-BU     4.4494 eV  278.65 nm  f=0.1634  <S**2>=0.000
      67 -> 70        -0.19109
      68 -> 71         0.67099
 
 Excited State  10:      Singlet-BU     4.4949 eV  275.83 nm  f=0.6522  <S**2>=0.000
      63 -> 69         0.10861
      65 -> 69        -0.10109
      67 -> 70         0.64246
      68 -> 71         0.17867
      68 -> 73        -0.12399
 
 Excited State  11:      Singlet-AU     4.9149 eV  252.26 nm  f=0.0001  <S**2>=0.000
      62 -> 69        -0.13766
      66 -> 70         0.68824
 
 Excited State  12:      Singlet-AG     4.9315 eV  251.41 nm  f=0.0000  <S**2>=0.000
      63 -> 70         0.10493
      65 -> 70         0.20803
      67 -> 71         0.11854
      68 -> 72         0.65181
 
 Excited State  13:      Singlet-BU     5.1931 eV  238.75 nm  f=0.1711  <S**2>=0.000
      64 -> 70        -0.16305
      67 -> 70         0.11455
      68 -> 73         0.66553
 
 Excited State  14:      Singlet-BG     5.4140 eV  229.01 nm  f=0.0000  <S**2>=0.000
      62 -> 70         0.68526
      66 -> 71        -0.12630
 
 Excited State  15:      Singlet-AG     5.4294 eV  228.36 nm  f=0.0000  <S**2>=0.000
      65 -> 70        -0.45900
      67 -> 71         0.51522
 
 Excited State  16:      Singlet-BU     5.5715 eV  222.53 nm  f=0.1417  <S**2>=0.000
      64 -> 70         0.64543
      67 -> 72         0.21080
      68 -> 73         0.11945
 
 Excited State  17:      Singlet-AG     5.5862 eV  221.95 nm  f=0.0000  <S**2>=0.000
      61 -> 69        -0.19153
      63 -> 70         0.31472
      64 -> 71         0.10953
      64 -> 73         0.11761
      65 -> 70         0.32758
      65 -> 72        -0.12267
      67 -> 71         0.30010
      67 -> 73        -0.18066
      68 -> 72        -0.22945
      68 -> 74         0.13195
 
 Excited State  18:      Singlet-AG     5.6663 eV  218.81 nm  f=0.0000  <S**2>=0.000
      61 -> 69        -0.17146
      63 -> 70         0.55715
      65 -> 70        -0.25585
      67 -> 71        -0.21565
      67 -> 73         0.13080
      68 -> 74        -0.15472
 
 Excited State  19:      Singlet-AG     5.7093 eV  217.16 nm  f=0.0000  <S**2>=0.000
      61 -> 69         0.63087
      63 -> 70         0.21110
      64 -> 71         0.12006
      65 -> 72        -0.12047
 
 Excited State  20:      Singlet-AU     5.9221 eV  209.36 nm  f=0.0003  <S**2>=0.000
      59 -> 70        -0.10334
      60 -> 69         0.69561
 SavETr:  write IOETrn=   770 NScale= 10 NData=  16 NLR=1 NState=   20 LETran=     370.
 Leave Link  914 at Wed Mar 22 08:56:51 2023, MaxMem= 64424509440 cpu:           11833.2 elap:             146.6
 (Enter /sob/g16/l601.exe)
 Copying SCF densities to generalized density rwf, IOpCl= 0 IROHF=0.

 **********************************************************************

            Population analysis using the SCF Density.

 **********************************************************************

 Orbital symmetries:
       Occupied  (BU) (AG) (BU) (AG) (BU) (AG) (AG) (BU) (BU) (AG)
[...]
    27  H    0.000000  -0.000000   0.000000   0.000001  -0.000000  -0.000000
    28  H   -0.000000   0.000000  -0.000000  -0.000000   0.000000   0.000000
    29  H   -0.000000   0.000000  -0.000000  -0.000000   0.000000   0.000000
    30  H    0.000000  -0.000000   0.000000  -0.000000  -0.000002   0.000000
               7          8          9         10         11         12
     1  C    0.003329  -0.003724   0.011040   0.001975  -0.000302  -0.000012
     2  C    0.001254  -0.001406  -0.002645  -0.000056   0.000493   0.000012
     3  C   -0.045765   0.003099   0.013178   0.000562   0.000650  -0.000325
     4  C    0.431012  -0.263591   0.129893   0.005753  -0.003143   0.001504
     5  C   -0.120557   0.043828   0.147996  -0.164919   0.012652  -0.003440
     6  C   -0.003000   0.103527  -0.149732   0.041093  -0.015639   0.000099
     7  N    6.361708   0.406503   0.012421   0.003421  -0.148394  -0.007294
     8  C    0.406503   6.768343  -0.144237  -0.254361  -0.660879  -0.032664
     9  C    0.012421  -0.144237   5.127507   0.732657  -0.032664   0.023277
    10  O    0.003421  -0.254361   0.732657   7.952448   0.075005   0.002090
    11  C   -0.148394  -0.660879  -0.032664   0.075005   6.768343  -0.144237
    12  C   -0.007294  -0.032664   0.023277   0.002090  -0.144237   5.127507
    13  C    0.000590   0.012652  -0.003440   0.000148   0.043828   0.147996
    14  C   -0.000791  -0.003143   0.001504  -0.000220  -0.263591   0.129893
    15  N    0.002068  -0.148394  -0.007294  -0.012676   0.406503   0.012421
    16  O   -0.012676   0.075005   0.002090   0.000016  -0.254361   0.732657
    17  C    0.000151  -0.015639   0.000099   0.000036   0.103527  -0.149732
    18  C   -0.000001  -0.000302  -0.000012  -0.000003  -0.003724   0.011040
    19  C    0.000000   0.000493   0.000012   0.000002  -0.001406  -0.002645
    20  C   -0.000011   0.000650  -0.000325  -0.000500   0.003099   0.013178
    21  H    0.000020   0.000016   0.000033  -0.000013   0.000004  -0.000000
    22  H   -0.000168   0.000055   0.000035  -0.000000  -0.000001   0.000000
    23  H   -0.000488  -0.000283  -0.001155   0.000006  -0.000091  -0.000043
    24  H   -0.000296   0.003981  -0.007974   0.006953  -0.000444  -0.000003
    25  H    0.379057  -0.002576  -0.005122  -0.000227  -0.048060   0.004351
    26  H   -0.000186  -0.048060   0.004351   0.024201  -0.002576  -0.005122
    27  H    0.000011  -0.000444  -0.000003   0.000000   0.003981  -0.007974
    28  H    0.000000   0.000004  -0.000000  -0.000000   0.000016   0.000033
    29  H    0.000000  -0.000001   0.000000   0.000000   0.000055   0.000035
    30  H   -0.000000  -0.000091  -0.000043  -0.000081  -0.000283  -0.001155
              13         14         15         16         17         18
     1  C    0.000000  -0.000000  -0.000001  -0.000003   0.000000   0.000000
     2  C   -0.000000   0.000000   0.000000   0.000002  -0.000000  -0.000000
     3  C   -0.000010  -0.000004  -0.000011  -0.000500   0.000002   0.000000
     4  C   -0.000473   0.000085  -0.000791  -0.000220   0.000018  -0.000000
     5  C    0.000455  -0.000473   0.000590   0.000148  -0.000027   0.000000
     6  C   -0.000027   0.000018   0.000151   0.000036  -0.000001   0.000000
     7  N    0.000590  -0.000791   0.002068  -0.012676   0.000151  -0.000001
     8  C    0.012652  -0.003143  -0.148394   0.075005  -0.015639  -0.000302
     9  C   -0.003440   0.001504  -0.007294   0.002090   0.000099  -0.000012
    10  O    0.000148  -0.000220  -0.012676   0.000016   0.000036  -0.000003
    11  C    0.043828  -0.263591   0.406503  -0.254361   0.103527  -0.003724
    12  C    0.147996   0.129893   0.012421   0.732657  -0.149732   0.011040
    13  C    5.556022   0.321157  -0.120557  -0.164919   0.297391  -0.061373
    14  C    0.321157   5.146040   0.431012   0.005753  -0.188993  -0.050244
    15  N   -0.120557   0.431012   6.361708   0.003421  -0.003000   0.003329
    16  O   -0.164919   0.005753   0.003421   7.952448   0.041093   0.001975
    17  C    0.297391  -0.188993  -0.003000   0.041093   5.304000   0.475430
    18  C   -0.061373  -0.050244   0.003329   0.001975   0.475430   4.974786
    19  C   -0.084301  -0.010966   0.001254  -0.000056  -0.001788   0.451191
    20  C   -0.002079   0.385285  -0.045765   0.000562  -0.032239  -0.020296
    21  H    0.000000  -0.000000   0.000000  -0.000000   0.000000  -0.000000
    22  H    0.000000  -0.000000   0.000000   0.000000   0.000000  -0.000000
    23  H   -0.000002  -0.000000  -0.000000  -0.000081   0.000000   0.000000
    24  H   -0.000000   0.000001   0.000011   0.000000  -0.000000   0.000000
    25  H    0.002570   0.000060  -0.000186   0.024201  -0.000415  -0.000003
    26  H    0.021808  -0.034884   0.379057  -0.000227   0.000950  -0.000056
    27  H   -0.074294   0.002114  -0.000296   0.006953   0.454701  -0.042732
    28  H    0.013720  -0.002749   0.000020  -0.000013  -0.057748   0.442203
    29  H   -0.001941   0.011999  -0.000168  -0.000000   0.009283  -0.048783
    30  H    0.015706  -0.063184  -0.000488   0.000006  -0.001411   0.007364
              19         20         21         22         23         24
     1  C   -0.000000   0.000000   0.442203  -0.048783   0.007364  -0.042732
     2  C    0.000000  -0.000000  -0.051710   0.432252  -0.045653   0.010023
     3  C   -0.000000  -0.000000   0.010241  -0.052538   0.440700  -0.001361
     4  C    0.000000  -0.000004  -0.002749   0.011999  -0.063184   0.002114
     5  C   -0.000000  -0.000010   0.013720  -0.001941   0.015706  -0.074294
     6  C   -0.000000   0.000002  -0.057748   0.009283  -0.001411   0.454701
     7  N    0.000000  -0.000011   0.000020  -0.000168  -0.000488  -0.000296
     8  C    0.000493   0.000650   0.000016   0.000055  -0.000283   0.003981
     9  C    0.000012  -0.000325   0.000033   0.000035  -0.001155  -0.007974
    10  O    0.000002  -0.000500  -0.000013  -0.000000   0.000006   0.006953
    11  C   -0.001406   0.003099   0.000004  -0.000001  -0.000091  -0.000444
    12  C   -0.002645   0.013178  -0.000000   0.000000  -0.000043  -0.000003
    13  C   -0.084301  -0.002079   0.000000   0.000000  -0.000002  -0.000000
    14  C   -0.010966   0.385285  -0.000000  -0.000000  -0.000000   0.000001
    15  N    0.001254  -0.045765   0.000000   0.000000  -0.000000   0.000011
    16  O   -0.000056   0.000562  -0.000000   0.000000  -0.000081   0.000000
    17  C   -0.001788  -0.032239   0.000000   0.000000   0.000000  -0.000000
    18  C    0.451191  -0.020296  -0.000000  -0.000000   0.000000   0.000000
    19  C    4.923993   0.465914   0.000000   0.000000  -0.000000  -0.000000
    20  C    0.465914   5.086162  -0.000000  -0.000000   0.000000   0.000000
    21  H    0.000000  -0.000000   0.521871  -0.006196  -0.000131  -0.006333
    22  H    0.000000  -0.000000  -0.006196   0.520183  -0.006646  -0.000173
    23  H   -0.000000   0.000000  -0.000131  -0.006646   0.512470   0.000076
    24  H   -0.000000   0.000000  -0.006333  -0.000173   0.000076   0.518911
    25  H    0.000002   0.000003  -0.000001  -0.000013   0.002713   0.000030
    26  H   -0.000646  -0.006731   0.000000   0.000000  -0.000001  -0.000025
    27  H    0.010023  -0.001361   0.000000   0.000000   0.000000  -0.000000
    28  H   -0.051710   0.010241  -0.000000   0.000000   0.000000   0.000000
    29  H    0.432252  -0.052538   0.000000   0.000000  -0.000000   0.000000
    30  H   -0.045653   0.440700   0.000000  -0.000000   0.000000   0.000000
              25         26         27         28         29         30
     1  C   -0.000056  -0.000003   0.000000  -0.000000  -0.000000   0.000000
     2  C   -0.000646   0.000002  -0.000000   0.000000   0.000000  -0.000000
     3  C   -0.006731   0.000003   0.000000  -0.000000  -0.000000   0.000000
     4  C   -0.034884   0.000060   0.000001  -0.000000  -0.000000  -0.000000
     5  C    0.021808   0.002570  -0.000000   0.000000   0.000000  -0.000002
     6  C    0.000950  -0.000415  -0.000000   0.000000   0.000000   0.000000
     7  N    0.379057  -0.000186   0.000011   0.000000   0.000000  -0.000000
     8  C   -0.002576  -0.048060  -0.000444   0.000004  -0.000001  -0.000091
     9  C   -0.005122   0.004351  -0.000003  -0.000000   0.000000  -0.000043
    10  O   -0.000227   0.024201   0.000000  -0.000000   0.000000  -0.000081
    11  C   -0.048060  -0.002576   0.003981   0.000016   0.000055  -0.000283
    12  C    0.004351  -0.005122  -0.007974   0.000033   0.000035  -0.001155
    13  C    0.002570   0.021808  -0.074294   0.013720  -0.001941   0.015706
    14  C    0.000060  -0.034884   0.002114  -0.002749   0.011999  -0.063184
    15  N   -0.000186   0.379057  -0.000296   0.000020  -0.000168  -0.000488
    16  O    0.024201  -0.000227   0.006953  -0.000013  -0.000000   0.000006
    17  C   -0.000415   0.000950   0.454701  -0.057748   0.009283  -0.001411
    18  C   -0.000003  -0.000056  -0.042732   0.442203  -0.048783   0.007364
    19  C    0.000002  -0.000646   0.010023  -0.051710   0.432252  -0.045653
    20  C    0.000003  -0.006731  -0.001361   0.010241  -0.052538   0.440700
    21  H   -0.000001   0.000000   0.000000  -0.000000   0.000000   0.000000
    22  H   -0.000013   0.000000   0.000000   0.000000   0.000000  -0.000000
    23  H    0.002713  -0.000001   0.000000   0.000000  -0.000000   0.000000
    24  H    0.000030  -0.000025  -0.000000   0.000000   0.000000   0.000000
    25  H    0.412979  -0.000108  -0.000025   0.000000   0.000000  -0.000001
    26  H   -0.000108   0.412979   0.000030  -0.000001  -0.000013   0.002713
    27  H   -0.000025   0.000030   0.518911  -0.006333  -0.000173   0.000076
    28  H    0.000000  -0.000001  -0.006333   0.521871  -0.006196  -0.000131
    29  H    0.000000  -0.000013  -0.000173  -0.006196   0.520183  -0.006646
    30  H   -0.000001   0.002713   0.000076  -0.000131  -0.006646   0.512470
 Mulliken charges:
               1
     1  C   -0.139790
     2  C   -0.085968
     3  C   -0.243939
     4  C    0.184320
     5  C    0.079372
     6  C   -0.235688
     7  N   -0.261919
     8  C    0.161641
     9  C    0.148554
    10  O   -0.413308
    11  C    0.161641
    12  C    0.148554
    13  C    0.079372
    14  C    0.184320
    15  N   -0.261919
    16  O   -0.413308
    17  C   -0.235688
    18  C   -0.139790
    19  C   -0.085968
    20  C   -0.243939
    21  H    0.136775
    22  H    0.142655
    23  H    0.140131
    24  H    0.136835
    25  H    0.250329
    26  H    0.250329
    27  H    0.136835
    28  H    0.136775
    29  H    0.142655
    30  H    0.140131
 Sum of Mulliken charges =  -0.00000
 Mulliken charges with hydrogens summed into heavy atoms:
               1
     1  C   -0.003015
     2  C    0.056686
     3  C   -0.103808
     4  C    0.184320
     5  C    0.079372
     6  C   -0.098852
     7  N   -0.011590
     8  C    0.161641
     9  C    0.148554
    10  O   -0.413308
    11  C    0.161641
    12  C    0.148554
    13  C    0.079372
    14  C    0.184320
    15  N   -0.011590
    16  O   -0.413308
    17  C   -0.098852
    18  C   -0.003015
    19  C    0.056686
    20  C   -0.103808
 Electronic spatial extent (au):  <R**2>=           6683.6191
 Charge=             -0.0000 electrons
 Dipole moment (field-independent basis, Debye):
    X=              0.0000    Y=             -0.0000    Z=              0.0000  Tot=              0.0000
 Quadrupole moment (field-independent basis, Debye-Ang):
   XX=           -114.8756   YY=            -82.3057   ZZ=           -119.0048
   XY=             15.2645   XZ=              0.0000   YZ=              0.0000
 Traceless Quadrupole moment (field-independent basis, Debye-Ang):
   XX=             -9.4802   YY=             23.0897   ZZ=            -13.6094
   XY=             15.2645   XZ=              0.0000   YZ=              0.0000
 Octapole moment (field-independent basis, Debye-Ang**2):
  XXX=              0.0000  YYY=              0.0000  ZZZ=              0.0000  XYY=             -0.0000
  XXY=             -0.0000  XXZ=              0.0000  XZZ=              0.0000  YZZ=              0.0000
  YYZ=              0.0000  XYZ=              0.0000
 Hexadecapole moment (field-independent basis, Debye-Ang**3):
 XXXX=          -1238.2066 YYYY=          -6619.5894 ZZZZ=           -131.5792 XXXY=             32.1018
 XXXZ=              0.0000 YYYX=              0.2838 YYYZ=              0.0000 ZZZX=              0.0000
 ZZZY=              0.0000 XXYY=          -1340.8056 XXZZ=           -236.6570 YYZZ=          -1498.9613
 XXYZ=              0.0000 YYXZ=              0.0000 ZZXY=            -45.1569
 N-N= 1.378625395607D+03 E-N=-4.797494822738D+03  KE= 8.715700321839D+02
 Symmetry AG   KE= 4.230461684461D+02
 Symmetry BG   KE= 1.328548290260D+01
 Symmetry AU   KE= 1.614565600150D+01
 Symmetry BU   KE= 4.190927248338D+02
 Leave Link  601 at Wed Mar 22 08:56:52 2023, MaxMem= 64424509440 cpu:               8.5 elap:               0.5
 (Enter /sob/g16/l9999.exe)
 Electronic transition elements 
                 1             2             3             4             5 
      1  -0.875959D+03 -0.875941D+03 -0.875930D+03 -0.875912D+03 -0.875908D+03
      2  -0.679625D+00  0.000000D+00  0.000000D+00  0.000000D+00  0.000000D+00
      3   0.238456D+01  0.000000D+00  0.000000D+00  0.000000D+00  0.000000D+00
      4   0.000000D+00  0.000000D+00  0.000000D+00  0.798525D-02  0.000000D+00
      5   0.513674D-01  0.000000D+00  0.000000D+00  0.000000D+00  0.000000D+00
      6  -0.184161D+00  0.000000D+00  0.000000D+00  0.000000D+00  0.000000D+00
      7   0.000000D+00  0.000000D+00  0.000000D+00  0.771757D-04  0.000000D+00
      8   0.000000D+00  0.000000D+00  0.768853D+00  0.000000D+00  0.000000D+00
      9   0.000000D+00  0.000000D+00  0.227911D+00  0.000000D+00  0.000000D+00
     10   0.000000D+00 -0.155076D+01  0.000000D+00  0.000000D+00  0.122498D+01
     11   0.000000D+00 -0.103937D+00  0.000000D+00  0.000000D+00  0.766847D-01
     12   0.000000D+00  0.263190D+00  0.000000D+00  0.000000D+00  0.722265D-01
     13   0.000000D+00  0.521271D-02  0.000000D+00  0.000000D+00  0.597581D-02
     14   0.000000D+00  0.310633D+00  0.000000D+00  0.000000D+00 -0.553425D+00
     15   0.000000D+00  0.000000D+00 -0.619697D-02  0.000000D+00  0.000000D+00
     16   0.000000D+00  0.000000D+00  0.226371D-01  0.000000D+00  0.000000D+00
                 6             7             8             9            10 
      1  -0.875901D+03 -0.875895D+03 -0.875891D+03 -0.875874D+03 -0.875872D+03
      2  -0.383224D+00  0.000000D+00  0.145657D+00  0.179152D+00  0.897354D+00
      3  -0.197032D+01  0.000000D+00 -0.793270D+00  0.121120D+01  0.226203D+01
      4   0.000000D+00  0.000000D+00  0.000000D+00  0.000000D+00  0.000000D+00
      5   0.513761D-01  0.000000D+00 -0.186172D-01 -0.281242D-01 -0.149931D+00
      6   0.266709D+00  0.000000D+00  0.115055D+00 -0.204186D+00 -0.373448D+00
      7   0.000000D+00  0.000000D+00  0.000000D+00  0.000000D+00  0.000000D+00
      8   0.000000D+00  0.000000D+00  0.000000D+00  0.000000D+00  0.000000D+00
      9   0.000000D+00  0.000000D+00  0.000000D+00  0.000000D+00  0.000000D+00
     10   0.000000D+00 -0.618983D+00  0.000000D+00  0.000000D+00  0.000000D+00
     11   0.000000D+00 -0.210849D+00  0.000000D+00  0.000000D+00  0.000000D+00
     12   0.000000D+00  0.178600D+01  0.000000D+00  0.000000D+00  0.000000D+00
     13   0.000000D+00  0.118541D-01  0.000000D+00  0.000000D+00  0.000000D+00
     14   0.000000D+00  0.346564D+00  0.000000D+00  0.000000D+00  0.000000D+00
     15   0.000000D+00  0.000000D+00  0.000000D+00  0.000000D+00  0.000000D+00
     16   0.000000D+00  0.000000D+00  0.000000D+00  0.000000D+00  0.000000D+00
                11            12            13            14            15 
      1  -0.875856D+03 -0.875856D+03 -0.875846D+03 -0.875838D+03 -0.875838D+03
      2   0.000000D+00  0.000000D+00  0.141085D+00  0.000000D+00  0.000000D+00
      3   0.000000D+00  0.000000D+00  0.115115D+01  0.000000D+00  0.000000D+00
      4   0.306529D-01  0.000000D+00  0.000000D+00  0.000000D+00  0.000000D+00
      5   0.000000D+00  0.000000D+00 -0.258658D-01  0.000000D+00  0.000000D+00
      6   0.000000D+00  0.000000D+00 -0.218977D+00  0.000000D+00  0.000000D+00
      7  -0.625818D-02  0.000000D+00  0.000000D+00  0.000000D+00  0.000000D+00
      8   0.000000D+00  0.000000D+00  0.000000D+00  0.466707D+00  0.000000D+00
      9   0.000000D+00  0.000000D+00  0.000000D+00  0.290800D+00  0.000000D+00
     10   0.000000D+00  0.518928D+00  0.000000D+00  0.000000D+00  0.881591D-01
     11   0.000000D+00 -0.398142D-01  0.000000D+00  0.000000D+00 -0.132765D+00
     12   0.000000D+00  0.145817D+01  0.000000D+00  0.000000D+00  0.205807D+00
     13   0.000000D+00  0.291959D-01  0.000000D+00  0.000000D+00 -0.135472D-01
     14   0.000000D+00 -0.454230D-01  0.000000D+00  0.000000D+00 -0.270320D+00
     15   0.000000D+00  0.000000D+00  0.000000D+00 -0.192068D-01  0.000000D+00
     16   0.000000D+00  0.000000D+00  0.000000D+00  0.517905D-01  0.000000D+00
                16            17            18            19            20 
      1  -0.875832D+03 -0.875832D+03 -0.875829D+03 -0.875827D+03 -0.875819D+03
      2  -0.765703D-01  0.000000D+00  0.000000D+00  0.000000D+00  0.000000D+00
      3   0.101617D+01  0.000000D+00  0.000000D+00  0.000000D+00  0.000000D+00
      4   0.000000D+00  0.000000D+00  0.000000D+00  0.000000D+00 -0.449309D-01
      5   0.188365D-01  0.000000D+00  0.000000D+00  0.000000D+00  0.000000D+00
      6  -0.207282D+00  0.000000D+00  0.000000D+00  0.000000D+00  0.000000D+00
      7   0.000000D+00  0.000000D+00  0.000000D+00  0.000000D+00  0.987735D-02
      8   0.000000D+00  0.000000D+00  0.000000D+00  0.000000D+00  0.000000D+00
      9   0.000000D+00  0.000000D+00  0.000000D+00  0.000000D+00  0.000000D+00
     10   0.000000D+00  0.355747D+00  0.405099D+00  0.118437D+00  0.000000D+00
     11   0.000000D+00 -0.284614D-01 -0.171226D+00  0.531255D-01  0.000000D+00
     12   0.000000D+00 -0.399908D+01  0.225873D+01 -0.125133D+01  0.000000D+00
     13   0.000000D+00 -0.359487D-01  0.113214D-01  0.763316D-02  0.000000D+00
     14   0.000000D+00 -0.539457D+00 -0.205591D+00 -0.720538D+00  0.000000D+00
     15   0.000000D+00  0.000000D+00  0.000000D+00  0.000000D+00  0.000000D+00
     16   0.000000D+00  0.000000D+00  0.000000D+00  0.000000D+00  0.000000D+00

 Test job not archived.
 1\1\GINC-7R32\SP\RB3LYP TD-FC\def2TZVP\C16H10N2O2\ROOT\22-Mar-2023\0\\
 #P B3LYP/def2TZVP TD(nstates=20) scrf\\opted\\0,1\C,0,-0.353929,5.3236
 86,0.\C,0,1.043285,5.17277,0.\C,0,1.65312,3.919481,0.\C,0,0.822574,2.7
 99905,0.\C,0,-0.583244,2.938578,0.\C,0,-1.175553,4.202406,0.\N,0,1.161
 211,1.455926,0.\C,0,0.022287,0.680116,0.\C,0,-1.161211,1.592784,0.\O,0
 ,-2.335694,1.227944,0.\C,0,-0.022287,-0.680116,0.\C,0,1.161211,-1.5927
 84,0.\C,0,0.583244,-2.938578,0.\C,0,-0.822574,-2.799905,0.\N,0,-1.1612
 11,-1.455926,0.\O,0,2.335694,-1.227944,0.\C,0,1.175553,-4.202406,0.\C,
 0,0.353929,-5.323686,0.\C,0,-1.043285,-5.17277,0.\C,0,-1.65312,-3.9194
 81,0.\H,0,-0.786489,6.317546,0.\H,0,1.670322,6.058166,0.\H,0,2.732731,
 3.821538,0.\H,0,-2.256281,4.297737,0.\H,0,2.091628,1.065046,0.\H,0,-2.
 091628,-1.065046,0.\H,0,2.256281,-4.297737,0.\H,0,0.786489,-6.317546,0
 .\H,0,-1.670322,-6.058166,0.\H,0,-2.732731,-3.821538,0.\\Version=ES64L
 -G16RevC.02\State=1-AG\HF=-876.0370737\RMSD=6.524e-09\PG=C02H [SGH(C16
 H10N2O2)]\\@


 SCIENCE IS A VERY HUMAN FORM OF KNOWLEDGE.
 WE ARE ALWAYS AT THE BRINK OF THE KNOWN,
 WE ALWAYS FEEL FORWARD FOR WHAT IS HOPED.
 EVERY JUDGEMENT IN SCIENCE STANDS ON THE EDGE OF ERROR, AND IS PERSONAL.
 SCIENCE IS A TRIBUTE TO WHAT WE CAN KNOW ALTHOUGH WE ARE FALLIBLE.

                     -- J. BRONOWSKI
 Job cpu time:       0 days  4 hours  0 minutes 44.3 seconds.
 Elapsed time:       0 days  0 hours  3 minutes  3.2 seconds.
 File lengths (MBytes):  RWF=   3229 Int=      0 D2E=      0 Chk=    282 Scr=      1
 Normal termination of Gaussian 16 at Wed Mar 22 08:56:52 2023.
