 Entering Gaussian System, Link 0=g16
 Initial command:
 /sob/g16/l1.exe "/sob2/gauscr/Gau-31731.inp" -scrdir="/sob2/gauscr/"
 Default is to use a total of  36 processors:
                               36 via shared-memory
                                1 via Linda
 Entering Link 1 = /sob/g16/l1.exe PID=     31733.
  
 Copyright (c) 1988,1990,1992,1993,1995,1998,2003,2009,2016,
            Gaussian, Inc.  All Rights Reserved.
  
 This is part of the Gaussian(R) 16 program.  It is based on
 the Gaussian(R) 09 system (copyright 2009, Gaussian, Inc.),
 the Gaussian(R) 03 system (copyright 2003, Gaussian, Inc.),
 the Gaussian(R) 98 system (copyright 1998, Gaussian, Inc.),
 the Gaussian(R) 94 system (copyright 1995, Gaussian, Inc.),
 the Gaussian 92(TM) system (copyright 1992, Gaussian, Inc.),
 the Gaussian 90(TM) system (copyright 1990, Gaussian, Inc.),
 the Gaussian 88(TM) system (copyright 1988, Gaussian, Inc.),
 the Gaussian 86(TM) system (copyright 1986, Carnegie Mellon
 University), and the Gaussian 82(TM) system (copyright 1983,
 Carnegie Mellon University). Gaussian is a federally registered
 trademark of Gaussian, Inc.
  
 This software contains proprietary and confidential information,
 including trade secrets, belonging to Gaussian, Inc.
  
 This software is provided under written license and may be
 used, copied, transmitted, or stored only in accord with that
 written license.
  
 The following legend is applicable only to US Government
 contracts under FAR:
  
                    RESTRICTED RIGHTS LEGEND
  
 Use, reproduction and disclosure by the US Government is
 subject to restrictions as set forth in subparagraphs (a)
 and (c) of the Commercial Computer Software - Restricted
 Rights clause in FAR 52.227-19.
  
 Gaussian, Inc.
 340 Quinnipiac St., Bldg. 40, Wallingford CT 06492
  
  
 ---------------------------------------------------------------
 Warning -- This program may not be used in any manner that
 competes with the business of Gaussian, Inc. or will provide
 assistance to any competitor of Gaussian, Inc.  The licensee
 of this program is prohibited from giving any competitor of
 Gaussian, Inc. access to this program.  By using this program,
 the user acknowledges that Gaussian, Inc. is engaged in the
 business of creating and licensing software in the field of
 computational chemistry and represents and warrants to the
 licensee that it is not a competitor of Gaussian, Inc. and that
 it will not use this program in any manner prohibited above.
 ---------------------------------------------------------------
  

 Cite this work as:
 Gaussian 16, Revision A.03,
 M. J. Frisch, G. W. Trucks, H. B. Schlegel, G. E. Scuseria, 
 M. A. Robb, J. R. Cheeseman, G. Scalmani, V. Barone, 
 G. A. Petersson, H. Nakatsuji, X. Li, M. Caricato, A. V. Marenich, 
 J. Bloino, B. G. Janesko, R. Gomperts, B. Mennucci, H. P. Hratchian, 
 J. V. Ortiz, A. F. Izmaylov, J. L. Sonnenberg, D. Williams-Young, 
 F. Ding, F. Lipparini, F. Egidi, J. Goings, B. Peng, A. Petrone, 
 T. Henderson, D. Ranasinghe, V. G. Zakrzewski, J. Gao, N. Rega, 
 G. Zheng, W. Liang, M. Hada, M. Ehara, K. Toyota, R. Fukuda, 
 J. Hasegawa, M. Ishida, T. Nakajima, Y. Honda, O. Kitao, H. Nakai, 
 T. Vreven, K. Throssell, J. A. Montgomery, Jr., J. E. Peralta, 
 F. Ogliaro, M. J. Bearpark, J. J. Heyd, E. N. Brothers, K. N. Kudin, 
 V. N. Staroverov, T. A. Keith, R. Kobayashi, J. Normand, 
 K. Raghavachari, A. P. Rendell, J. C. Burant, S. S. Iyengar, 
 J. Tomasi, M. Cossi, J. M. Millam, M. Klene, C. Adamo, R. Cammi, 
 J. W. Ochterski, R. L. Martin, K. Morokuma, O. Farkas, 
 J. B. Foresman, and D. J. Fox, Gaussian, Inc., Wallingford CT, 2016.
 
 ******************************************
 Gaussian 16:  ES64L-G16RevA.03 25-Dec-2016
                22-Jul-2018 
 ******************************************
 ----------------------------
 # B3LYP/aug-cc-pVDZ freq=ROA
 ----------------------------
 1/10=4,30=1,38=1,83=21/1,3;
 2/12=2,17=6,18=5,40=1/2;
 3/5=16,7=10,11=2,25=1,30=1,36=2,71=2,74=-5,140=1/1,2,3;
 4//1;
 5/5=2,38=5,98=1/2;
 8/6=4,10=90,11=11/1;
 10/13=10,15=4,49=111,72=3/2;
 11/6=3,8=1,9=11,15=111,16=1/1,2,10;
 10/6=1,49=111/2;
 6/7=2,8=2,9=2,10=2,28=1/1;
 7/8=1,10=1,25=1/1,2,3,16;
 1/10=4,30=1/3;
 99//99;
 ------------------------------------------------
 Geometry has been optimized at B3LYP/aug-cc-pVDZ
 ------------------------------------------------
 Symbolic Z-matrix:
 Charge =  0 Multiplicity = 1
 C                    -1.04474   0.61999  -0.06138 
 C                     0.15501  -0.03224   0.48702 
 H                    -1.87675   0.88139   0.59781 
 H                    -0.96019   1.21502  -0.9752 
 H                     0.15524  -0.2488    1.56124 
 O                    -0.83134  -0.79417  -0.23888 
 C                     1.51356   0.09803  -0.15 
 H                     2.08458   0.90647   0.33046 
 H                     2.08403  -0.83472  -0.03583 
 H                     1.42081   0.31932  -1.22127 
 
 Using perturbation frequencies:    0.075939    0.085645    0.091127

 GradGradGradGradGradGradGradGradGradGradGradGradGradGradGradGradGradGrad
 Berny optimization.
 Initialization pass.
 Trust Radius=3.00D-01 FncErr=1.00D-07 GrdErr=1.00D-07 EigMax=2.50D+02 EigMin=1.00D-04
 Number of steps in this run=      2 maximum allowed number of steps=      2.
 GradGradGradGradGradGradGradGradGradGradGradGradGradGradGradGradGradGrad

                          Input orientation:                          
 ---------------------------------------------------------------------
 Center     Atomic      Atomic             Coordinates (Angstroms)
 Number     Number       Type             X           Y           Z
 ---------------------------------------------------------------------
      1          6           0       -1.044737    0.619994   -0.061380
      2          6           0        0.155011   -0.032240    0.487022
      3          1           0       -1.876748    0.881393    0.597813
      4          1           0       -0.960189    1.215021   -0.975198
      5          1           0        0.155240   -0.248797    1.561236
      6          8           0       -0.831339   -0.794174   -0.238879
      7          6           0        1.513556    0.098031   -0.150003
      8          1           0        2.084582    0.906467    0.330457
      9          1           0        2.084031   -0.834720   -0.035831
     10          1           0        1.420814    0.319316   -1.221272
 ---------------------------------------------------------------------
                    Distance matrix (angstroms):
                    1          2          3          4          5
     1  C    0.000000
     2  C    1.471581   0.000000
     3  H    1.093210   2.230481   0.000000
     4  H    1.093741   2.222030   1.850879   0.000000
     5  H    2.197186   1.095825   2.516841   3.133759   0.000000
     6  O    1.441151   1.442346   2.144868   2.143743   2.123956
     7  C    2.612501   1.506126   3.559079   2.836905   2.212160
     8  H    3.166740   2.151494   3.970421   3.327247   2.563555
     9  H    3.450512   2.153710   4.362834   3.788288   2.571802
    10  H    2.741295   2.155021   3.807744   2.555781   3.109145
                    6          7          8          9         10
     6  O    0.000000
     7  C    2.510470   0.000000
     8  H    3.423291   1.100219   0.000000
     9  H    2.922714   1.099319   1.779297   0.000000
    10  H    2.697619   1.097809   1.786952   1.782393   0.000000
 Stoichiometry    C3H6O
 Framework group  C1[X(C3H6O)]
 Deg. of freedom    24
 Full point group                 C1      NOp   1
 Largest Abelian subgroup         C1      NOp   1
 Largest concise Abelian subgroup C1      NOp   1
                         Standard orientation:                         
 ---------------------------------------------------------------------
 Center     Atomic      Atomic             Coordinates (Angstroms)
 Number     Number       Type             X           Y           Z
 ---------------------------------------------------------------------
      1          6           0       -1.044737    0.619994   -0.061380
      2          6           0        0.155011   -0.032240    0.487022
      3          1           0       -1.876748    0.881393    0.597813
      4          1           0       -0.960189    1.215021   -0.975198
      5          1           0        0.155240   -0.248797    1.561236
      6          8           0       -0.831339   -0.794174   -0.238879
      7          6           0        1.513556    0.098032   -0.150003
      8          1           0        2.084582    0.906468    0.330457
      9          1           0        2.084031   -0.834719   -0.035831
     10          1           0        1.420814    0.319316   -1.221272
 ---------------------------------------------------------------------
 Rotational constants (GHZ):          18.0110759           6.6044033           5.8813229
 Standard basis: Aug-CC-pVDZ (5D, 7F)
 There are   154 symmetry adapted cartesian basis functions of A   symmetry.
 There are   146 symmetry adapted basis functions of A   symmetry.
   146 basis functions,   238 primitive gaussians,   154 cartesian basis functions
    16 alpha electrons       16 beta electrons
       nuclear repulsion energy       124.0922684082 Hartrees.
 NAtoms=   10 NActive=   10 NUniq=   10 SFac= 1.00D+00 NAtFMM=   60 NAOKFM=F Big=F
 Integral buffers will be    131072 words long.
 Raffenetti 2 integral format.
 Two-electron integral symmetry is turned on.
 One-electron integrals computed using PRISM.
 NBasis=   146 RedAO= T EigKep=  3.72D-05  NBF=   146
 NBsUse=   146 1.00D-06 EigRej= -1.00D+00 NBFU=   146
 ExpMin= 2.97D-02 ExpMax= 1.17D+04 ExpMxC= 4.01D+02 IAcc=3 IRadAn=         5 AccDes= 0.00D+00
 Harris functional with IExCor=  402 and IRadAn=       5 diagonalized for initial guess.
 HarFok:  IExCor=  402 AccDes= 0.00D+00 IRadAn=         5 IDoV= 1 UseB2=F ITyADJ=14
 ICtDFT=  3500011 ScaDFX=  1.000000  1.000000  1.000000  1.000000
 FoFCou: FMM=F IPFlag=           0 FMFlag=      100000 FMFlg1=           0
         NFxFlg=           0 DoJE=T BraDBF=F KetDBF=T FulRan=T
         wScrn=  0.000000 ICntrl=       500 IOpCl=  0 I1Cent=   200000004 NGrid=           0
         NMat0=    1 NMatS0=      1 NMatT0=    0 NMatD0=    1 NMtDS0=    0 NMtDT0=    0
 Petite list used in FoFCou.
 Keep R1 ints in memory in canonical form, NReq=92842820.
 Requested convergence on RMS density matrix=1.00D-08 within 128 cycles.
 Requested convergence on MAX density matrix=1.00D-06.
 Requested convergence on             energy=1.00D-06.
 No special actions if energy rises.
 SCF Done:  E(RB3LYP) =  -193.134099271     A.U. after   11 cycles
            NFock= 11  Conv=0.40D-08     -V/T= 2.0069
 DoSCS=F DFT=T ScalE2(SS,OS)=  1.000000  1.000000
 Range of M.O.s used for correlation:     1   146
 NBasis=   146 NAE=    16 NBE=    16 NFC=     0 NFV=     0
 NROrb=    146 NOA=    16 NOB=    16 NVA=   130 NVB=   130

 **** Warning!!: The largest alpha MO coefficient is  0.46948540D+02

          Differentiating once with respect to electric field.
                with respect to dipole field.
                with respect to quadrupole field.
          Differentiating once with respect to magnetic field using GIAOs.
          Electric field/nuclear overlap derivatives assumed to be zero.
 Keep R1 and R3 ints in memory in canonical form, NReq=152355433.
 FoFJK:  IHMeth= 1 ICntrl=    6127 DoSepK=F KAlg= 0 I1Cent=           0 FoldK=F
 IRaf=         1 NMat=       1 IRICut=       1 DoRegI=T DoRafI=F ISym2E= 0 IDoP0=0 IntGTp=1.
 CalDSu exits because no D1Ps are significant.
          There are    36 degrees of freedom in the 1st order CPHF.  IDoFFX=0 NUNeed=    36.
 LinEq1:  Iter=  0 NonCon=    36 RMS=3.56D-01 Max=3.63D+00 NDo=    36
 AX will form    36 AO Fock derivatives at one time.
 LinEq1:  Iter=  1 NonCon=    36 RMS=1.38D-01 Max=1.82D+00 NDo=    36
 LinEq1:  Iter=  2 NonCon=    36 RMS=9.90D-02 Max=8.44D-01 NDo=    36
 LinEq1:  Iter=  3 NonCon=    36 RMS=3.22D-02 Max=3.52D-01 NDo=    36
 LinEq1:  Iter=  4 NonCon=    36 RMS=1.77D-02 Max=3.24D-01 NDo=    36
 LinEq1:  Iter=  5 NonCon=    36 RMS=1.09D-02 Max=1.51D-01 NDo=    36
 LinEq1:  Iter=  6 NonCon=    36 RMS=5.50D-03 Max=7.93D-02 NDo=    36
 LinEq1:  Iter=  7 NonCon=    36 RMS=1.74D-03 Max=2.40D-02 NDo=    36
 LinEq1:  Iter=  8 NonCon=    36 RMS=4.51D-04 Max=4.83D-03 NDo=    36
 LinEq1:  Iter=  9 NonCon=    36 RMS=2.11D-04 Max=2.33D-03 NDo=    36
 LinEq1:  Iter= 10 NonCon=    36 RMS=8.16D-05 Max=1.28D-03 NDo=    36
 LinEq1:  Iter= 11 NonCon=    36 RMS=1.82D-05 Max=3.00D-04 NDo=    36
 LinEq1:  Iter= 12 NonCon=    36 RMS=4.18D-06 Max=6.90D-05 NDo=    36
 LinEq1:  Iter= 13 NonCon=    36 RMS=1.10D-06 Max=1.32D-05 NDo=    36
 LinEq1:  Iter= 14 NonCon=    33 RMS=2.38D-07 Max=3.15D-06 NDo=    36
 LinEq1:  Iter= 15 NonCon=    24 RMS=5.14D-08 Max=8.09D-07 NDo=    33
 LinEq1:  Iter= 16 NonCon=     2 RMS=9.16D-09 Max=1.31D-07 NDo=    24
 LinEq1:  Iter= 17 NonCon=     0 RMS=1.85D-09 Max=2.79D-08 NDo=     2
 Linear equations converged to 1.000D-08 1.000D-07 after    17 iterations.
 Isotropic polarizability for W=    0.075939       42.81 Bohr**3.
 Isotropic polarizability for W=    0.085645       43.09 Bohr**3.
 Isotropic polarizability for W=    0.091127       43.26 Bohr**3.
 Dipole-magnetic dipole polarizability for W=    0.075939:
                 1             2             3 
      1   0.871457D+00  0.857563D+00 -0.647796D+01
      2  -0.454279D+01  0.758692D+00  0.732570D+01
      3   0.374247D+01 -0.654040D+01 -0.156239D+01
 DQ contribution to OR G for W=    0.075939:
                 1             2             3 
      1   0.153666D+01  0.285108D+01 -0.196826D+02
      2  -0.224577D+01  0.536102D+00  0.238768D+02
      3   0.187090D+02 -0.219938D+02 -0.207277D+01
 Optical Rotation G' tensor for W=    0.075939:
                 1             2             3 
      1  -0.176847D-01  0.996970D+00  0.562178D+00
      2   0.996970D+00 -0.211443D+00  0.390553D-01
      3   0.562178D+00  0.390553D-01  0.296883D+00
 OR G Eigenvalues:    -1.2028     0.1341     1.1364  Iso=    -0.0226
 Eigenvectors:
   (1)   0.689130  -0.683553  -0.240529
   (2)  -0.207630  -0.504274   0.838211
   (3)   0.694254   0.527696   0.489437
 w=    0.075939 a.u., Optical Rotation Beta=     -0.0226 au.
 Molar Mass =     58.0798 grams/mole, [Alpha] ( 6000.0 A) =      -14.50 deg.
 Dipole-magnetic dipole polarizability for W=    0.085645:
                 1             2             3 
      1   0.864872D+00  0.858892D+00 -0.654578D+01
      2  -0.459258D+01  0.779371D+00  0.737000D+01
      3   0.377108D+01 -0.660880D+01 -0.158477D+01
 DQ contribution to OR G for W=    0.085645:
                 1             2             3 
      1   0.157702D+01  0.291265D+01 -0.198328D+02
      2  -0.227972D+01  0.523377D+00  0.240243D+02
      3   0.188754D+02 -0.221337D+02 -0.210040D+01
 Optical Rotation G' tensor for W=    0.085645:
                 1             2             3 
      1  -0.844560D-02  0.101254D+01  0.574001D+00
      2   0.101254D+01 -0.229106D+00  0.460191D-01
      3   0.574001D+00  0.460191D-01  0.297022D+00
 OR G Eigenvalues:    -1.2230     0.1234     1.1591  Iso=    -0.0198
 Eigenvectors:
   (1)  -0.685844   0.687672   0.238171
   (2)  -0.213091  -0.502689   0.837792
   (3)   0.695852   0.523843   0.491303
 w=    0.085645 a.u., Optical Rotation Beta=     -0.0198 au.
 Molar Mass =     58.0798 grams/mole, [Alpha] ( 5320.0 A) =      -16.19 deg.
 Dipole-magnetic dipole polarizability for W=    0.091127:
                 1             2             3 
      1   0.860381D+00  0.859438D+00 -0.658883D+01
      2  -0.462383D+01  0.792612D+00  0.739742D+01
      3   0.378892D+01 -0.665210D+01 -0.159919D+01
 DQ contribution to OR G for W=    0.091127:
                 1             2             3 
      1   0.160331D+01  0.295263D+01 -0.199273D+02
      2  -0.230194D+01  0.514559D+00  0.241160D+02
      3   0.189804D+02 -0.222208D+02 -0.211787D+01
 Optical Rotation G' tensor for W=    0.091127:
                 1             2             3 
      1  -0.246149D-02  0.102243D+01  0.581617D+00
      2   0.102243D+01 -0.240764D+00  0.505644D-01
      3   0.581617D+00  0.505644D-01  0.297030D+00
 OR G Eigenvalues:    -1.2361     0.1163     1.1735  Iso=    -0.0179
 Eigenvectors:
   (1)  -0.683712   0.690327   0.236614
   (2)  -0.216608  -0.501605   0.837540
   (3)   0.696863   0.521384   0.492484
 w=    0.091127 a.u., Optical Rotation Beta=     -0.0179 au.
 Molar Mass =     58.0798 grams/mole, [Alpha] ( 5000.0 A) =      -16.58 deg.
 End of Minotr F.D. properties on file   721 Mask=       B NFrqRd=     3 NDeriv=     1 ND12= 1 LenFil=     113:
 Frequencies=    0.075939    0.085645    0.091127
 Property number 1 -- Alpha(-w,w) frequency  1    0.075939:
                 1             2             3 
      1   0.488403D+02 -0.251379D+01  0.796305D+00
      2  -0.251379D+01  0.398558D+02 -0.596942D+00
      3   0.796305D+00 -0.596942D+00  0.397376D+02
 Property number 1 -- Alpha(-w,w) frequency  2    0.085645:
                 1             2             3 
      1   0.491769D+02 -0.254921D+01  0.801366D+00
      2  -0.254921D+01  0.400924D+02 -0.596012D+00
      3   0.801366D+00 -0.596012D+00  0.399924D+02
 Property number 1 -- Alpha(-w,w) frequency  3    0.091127:
                 1             2             3 
      1   0.493884D+02 -0.257161D+01  0.804436D+00
      2  -0.257161D+01  0.402410D+02 -0.595165D+00
      3   0.804436D+00 -0.595165D+00  0.401530D+02
 Property number 2 -- FD Optical Rotation Tensor frequency  1    0.075939:
                 1             2             3 
      1   0.871457D+00  0.857563D+00 -0.647796D+01
      2  -0.454279D+01  0.758692D+00  0.732570D+01
      3   0.374247D+01 -0.654040D+01 -0.156239D+01
 Property number 2 -- FD Optical Rotation Tensor frequency  2    0.085645:
                 1             2             3 
      1   0.864872D+00  0.858892D+00 -0.654578D+01
      2  -0.459258D+01  0.779371D+00  0.737000D+01
      3   0.377108D+01 -0.660880D+01 -0.158477D+01
 Property number 2 -- FD Optical Rotation Tensor frequency  3    0.091127:
                 1             2             3 
      1   0.860381D+00  0.859438D+00 -0.658883D+01
      2  -0.462383D+01  0.792612D+00  0.739742D+01
      3   0.378892D+01 -0.665210D+01 -0.159919D+01
 Property number 4 -- D-Q polarizability frequency  1    0.075939:
                 1             2             3 
      1   0.250503D+02 -0.804721D-02  0.265041D+01
      2  -0.149199D+02  0.499161D+01 -0.768598D+01
      3  -0.101304D+02 -0.498356D+01  0.503557D+01
      4   0.187010D+02  0.707391D+01 -0.129337D+01
      5   0.489618D+01  0.243293D+00  0.137464D+02
      6  -0.182947D+01 -0.483490D+01  0.146990D+02
 Property number 4 -- D-Q polarizability frequency  2    0.085645:
                 1             2             3 
      1   0.252372D+02  0.106820D-01  0.267081D+01
      2  -0.150386D+02  0.497682D+01 -0.780350D+01
      3  -0.101986D+02 -0.498750D+01  0.513269D+01
      4   0.188861D+02  0.709510D+01 -0.132385D+01
      5   0.495053D+01  0.253170D+00  0.138257D+02
      6  -0.184723D+01 -0.489085D+01  0.148453D+02
 Property number 4 -- D-Q polarizability frequency  3    0.091127:
                 1             2             3 
      1   0.253543D+02  0.224976D-01  0.268323D+01
      2  -0.151132D+02  0.496658D+01 -0.787877D+01
      3  -0.102412D+02 -0.498908D+01  0.519554D+01
      4   0.190029D+02  0.710764D+01 -0.134387D+01
      5   0.498517D+01  0.259441D+00  0.138748D+02
      6  -0.185843D+01 -0.492614D+01  0.149383D+02
 End of Minotr F.D. properties file   722 does not exist.
 End of Minotr F.D. properties file   788 does not exist.
 Symmetrizing basis deriv contribution to polar:
 IMax=3 JMax=2 DiffMx= 0.00D+00
 G2DrvN: will do    11 centers at a time, making    1 passes.
 PxScal for G2LodP:  IOpCl= 0 ISclPx=1 IMOff=     1 NMtTot=    73 NTT=   10731 ScalPx= 2.36D+01
 Calling FoFCou, ICntrl=  3107 FMM=F I1Cent=   0 AccDes= 0.00D+00.
 End of G2Drv F.D. properties on file   721 Mask=       B NFrqRd=     3 NDeriv=     1 ND12= 1 LenFil=     113:
 Frequencies=    0.075939    0.085645    0.091127
 Property number 1 -- Alpha(-w,w) frequency  1    0.075939:
                 1             2             3 
      1   0.488403D+02 -0.251379D+01  0.796305D+00
      2  -0.251379D+01  0.398558D+02 -0.596942D+00
      3   0.796305D+00 -0.596942D+00  0.397376D+02
 Property number 1 -- Alpha(-w,w) frequency  2    0.085645:
                 1             2             3 
      1   0.491769D+02 -0.254921D+01  0.801366D+00
      2  -0.254921D+01  0.400924D+02 -0.596012D+00
      3   0.801366D+00 -0.596012D+00  0.399924D+02
 Property number 1 -- Alpha(-w,w) frequency  3    0.091127:
                 1             2             3 
      1   0.493884D+02 -0.257161D+01  0.804436D+00
      2  -0.257161D+01  0.402410D+02 -0.595165D+00
      3   0.804436D+00 -0.595165D+00  0.401530D+02
 Property number 2 -- FD Optical Rotation Tensor frequency  1    0.075939:
                 1             2             3 
      1   0.871457D+00  0.857563D+00 -0.647796D+01
      2  -0.454279D+01  0.758692D+00  0.732570D+01
      3   0.374247D+01 -0.654040D+01 -0.156239D+01
 Property number 2 -- FD Optical Rotation Tensor frequency  2    0.085645:
                 1             2             3 
      1   0.864872D+00  0.858892D+00 -0.654578D+01
      2  -0.459258D+01  0.779371D+00  0.737000D+01
      3   0.377108D+01 -0.660880D+01 -0.158477D+01
 Property number 2 -- FD Optical Rotation Tensor frequency  3    0.091127:
                 1             2             3 
      1   0.860381D+00  0.859438D+00 -0.658883D+01
      2  -0.462383D+01  0.792612D+00  0.739742D+01
      3   0.378892D+01 -0.665210D+01 -0.159919D+01
 Property number 4 -- D-Q polarizability frequency  1    0.075939:
                 1             2             3 
      1   0.250503D+02 -0.804721D-02  0.265041D+01
      2  -0.149199D+02  0.499161D+01 -0.768598D+01
      3  -0.101304D+02 -0.498356D+01  0.503557D+01
      4   0.187010D+02  0.707391D+01 -0.129337D+01
      5   0.489618D+01  0.243293D+00  0.137464D+02
      6  -0.182947D+01 -0.483490D+01  0.146990D+02
 Property number 4 -- D-Q polarizability frequency  2    0.085645:
                 1             2             3 
      1   0.252372D+02  0.106820D-01  0.267081D+01
      2  -0.150386D+02  0.497682D+01 -0.780350D+01
      3  -0.101986D+02 -0.498750D+01  0.513269D+01
      4   0.188861D+02  0.709510D+01 -0.132385D+01
      5   0.495053D+01  0.253170D+00  0.138257D+02
      6  -0.184723D+01 -0.489085D+01  0.148453D+02
 Property number 4 -- D-Q polarizability frequency  3    0.091127:
                 1             2             3 
      1   0.253543D+02  0.224976D-01  0.268323D+01
      2  -0.151132D+02  0.496658D+01 -0.787877D+01
      3  -0.102412D+02 -0.498908D+01  0.519554D+01
      4   0.190029D+02  0.710764D+01 -0.134387D+01
      5   0.498517D+01  0.259441D+00  0.138748D+02
      6  -0.185843D+01 -0.492614D+01  0.149383D+02
 End of G2Drv F.D. properties on file   722 Mask=       B NFrqRd=     3 NDeriv=    30 ND12= 1 LenFil=    3245:
 Frequencies=    0.075939    0.085645    0.091127
 Property number 1 -- Alpha(-w,w) derivatives, frequency  1    0.075939:
                 1             2             3             4             5 
      1  -0.573683D+01  0.133467D+01 -0.109356D+01  0.113972D+01 -0.229260D+01
      2   0.133467D+01 -0.340877D+00  0.925872D+00 -0.229260D+01  0.402610D+01
      3  -0.109356D+01  0.925872D+00 -0.636349D+00  0.167123D+01  0.854812D+00
                 6             7             8             9            10 
      1   0.167123D+01 -0.118317D+01  0.161999D+01 -0.233620D+01  0.415687D+01
      2   0.854812D+00  0.161999D+01  0.562699D+00 -0.386669D-01  0.809590D+00
      3  -0.102481D+01 -0.233620D+01 -0.386669D-01 -0.287884D+01  0.233072D+01
                11            12            13            14            15 
      1   0.809590D+00  0.233072D+01  0.811151D+00 -0.977661D+00 -0.124278D+01
      2  -0.350829D+01 -0.144655D+01 -0.977661D+00 -0.406911D+01 -0.225180D+01
      3  -0.144655D+01  0.236163D+00 -0.124278D+01 -0.225180D+01  0.155502D+01
                16            17            18            19            20 
      1   0.887497D-01 -0.845571D+00  0.265143D+00  0.242779D+01 -0.956047D+00
      2  -0.845571D+00 -0.255551D+01  0.111826D+01 -0.956047D+00  0.142467D+01
      3   0.265143D+00  0.111826D+01  0.486552D+01 -0.453452D+00  0.401886D+00
                21            22            23            24            25 
      1  -0.453452D+00 -0.251791D+00  0.506039D+00 -0.423822D+00 -0.516675D+00
      2   0.401886D+00  0.506039D+00 -0.101366D+01  0.324815D+00 -0.304449D+00
      3   0.506904D-01 -0.423822D+00  0.324815D+00  0.438613D-01  0.479357D+00
                26            27            28            29            30 
      1  -0.304449D+00  0.479357D+00  0.418359D+00 -0.892246D+00  0.507652D+00
      2   0.174406D+00 -0.223072D+00 -0.892246D+00  0.187679D+00  0.233973D+00
      3  -0.223072D+00 -0.124594D+01  0.507652D+00  0.233973D+00 -0.253932D+00
                31            32            33            34            35 
      1  -0.672344D+00  0.418854D+00 -0.221932D+00  0.814090D+00 -0.849284D+00
      2   0.418854D+00 -0.123234D+01  0.315675D+00 -0.849284D+00  0.171641D+01
      3  -0.221932D+00  0.315675D+00 -0.820193D+00  0.214738D+00 -0.500663D+00
                36            37            38            39            40 
      1   0.214738D+00 -0.713426D+00 -0.134617D+00 -0.152887D+01 -0.844006D+00
      2  -0.500663D+00 -0.134617D+00 -0.797432D+00  0.356890D+00 -0.197948D+00
      3   0.171089D+01 -0.152887D+01  0.356890D+00 -0.971512D-01  0.652393D+00
                41            42            43            44            45 
      1  -0.197948D+00  0.652393D+00  0.579480D-01 -0.213926D+00  0.250932D+00
      2   0.422752D+00 -0.798628D-01 -0.213926D+00 -0.116152D+01  0.159151D+00
      3  -0.798628D-01  0.927608D+00  0.250932D+00  0.159151D+00 -0.200240D+01
                46            47            48            49            50 
      1  -0.253419D+00  0.709295D+00 -0.108132D+00  0.624866D-01  0.129691D+01
      2   0.709295D+00  0.571826D+00  0.111034D-02  0.129691D+01  0.819226D+00
      3  -0.108132D+00  0.111034D-02 -0.296183D+00 -0.112332D+00  0.664679D+00
                51            52            53            54            55 
      1  -0.112332D+00 -0.795268D-02  0.413222D+00 -0.184956D+00  0.362358D+01
      2   0.664679D+00  0.413222D+00  0.934491D+00  0.245699D+00  0.982045D-01
      3   0.489138D+00 -0.184956D+00  0.245699D+00  0.393757D+00  0.761837D-01
                56            57            58            59            60 
      1   0.982045D-01  0.761837D-01  0.635613D+00  0.136870D+01 -0.341845D+00
      2   0.214042D+01 -0.207968D+00  0.136870D+01  0.149482D+01  0.152173D+00
      3  -0.207968D+00  0.780988D+00 -0.341845D+00  0.152173D+00 -0.108045D+01
                61            62            63            64            65 
      1  -0.103432D+01 -0.616945D-01  0.179176D+01 -0.149455D+01 -0.508715D+00
      2  -0.616945D-01 -0.205047D-02 -0.285653D+00 -0.508715D+00 -0.173562D+00
      3   0.179176D+01 -0.285653D+00 -0.117004D+01 -0.123411D+00 -0.103385D+00
                66            67            68            69            70 
      1  -0.123411D+00 -0.151189D+01 -0.938005D-01 -0.410291D+00 -0.136124D+00
      2  -0.103385D+00 -0.938005D-01 -0.114502D+01 -0.249296D+00  0.111394D-01
      3  -0.423605D-01 -0.410291D+00 -0.249296D+00 -0.439182D+00 -0.237521D+00
                71            72            73            74            75 
      1   0.111394D-01 -0.237521D+00 -0.182836D+01  0.348073D+00 -0.133061D+00
      2  -0.533311D+00 -0.302183D+00  0.348073D+00  0.674725D+00 -0.197176D+00
      3  -0.302183D+00 -0.906836D+00 -0.133061D+00 -0.197176D+00 -0.334681D+00
                76            77            78            79            80 
      1   0.139222D+01 -0.541121D+00  0.404819D+00  0.659153D+00  0.532560D-01
      2  -0.541121D+00  0.126964D+01  0.140603D+00  0.532560D-01 -0.115389D+00
      3   0.404819D+00  0.140603D+00  0.583642D+00  0.172132D+00  0.965416D-01
                81            82            83            84            85 
      1   0.172132D+00 -0.600014D+00 -0.808207D+00  0.525931D+00 -0.761156D+00
      2   0.965416D-01 -0.808207D+00 -0.179161D+00  0.353455D-01  0.512624D+00
      3  -0.828752D+00  0.525931D+00  0.353455D-01  0.592814D+00  0.245617D-01
                86            87            88            89            90 
      1   0.512624D+00  0.245617D-01  0.125830D+01  0.177313D+00 -0.415385D+00
      2  -0.572413D+00  0.128201D+00  0.177313D+00  0.979783D+00 -0.269416D+00
      3   0.128201D+00 -0.234631D+00 -0.415385D+00 -0.269416D+00  0.206264D+01
 Property number 1 -- Alpha(-w,w) derivatives, frequency  2    0.085645:
                 1             2             3             4             5 
      1  -0.577671D+01  0.134307D+01 -0.111007D+01  0.115589D+01 -0.230508D+01
      2   0.134307D+01 -0.342586D+00  0.942103D+00 -0.230508D+01  0.404932D+01
      3  -0.111007D+01  0.942103D+00 -0.633606D+00  0.168501D+01  0.864919D+00
                 6             7             8             9            10 
      1   0.168501D+01 -0.121257D+01  0.164280D+01 -0.235306D+01  0.419350D+01
      2   0.864919D+00  0.164280D+01  0.569130D+00 -0.558727D-01  0.833420D+00
      3  -0.104149D+01 -0.235306D+01 -0.558727D-01 -0.289280D+01  0.236385D+01
                11            12            13            14            15 
      1   0.833420D+00  0.236385D+01  0.830651D+00 -0.986853D+00 -0.125981D+01
      2  -0.353728D+01 -0.147954D+01 -0.986853D+00 -0.407768D+01 -0.227527D+01
      3  -0.147954D+01  0.233853D+00 -0.125981D+01 -0.227527D+01  0.159963D+01
                16            17            18            19            20 
      1   0.962825D-01 -0.856196D+00  0.268165D+00  0.245729D+01 -0.971338D+00
      2  -0.856196D+00 -0.258074D+01  0.115781D+01 -0.971338D+00  0.144744D+01
      3   0.268165D+00  0.115781D+01  0.491055D+01 -0.459487D+00  0.407996D+00
                21            22            23            24            25 
      1  -0.459487D+00 -0.262633D+00  0.508146D+00 -0.424160D+00 -0.527142D+00
      2   0.407996D+00  0.508146D+00 -0.102110D+01  0.326038D+00 -0.307488D+00
      3   0.533616D-01 -0.424160D+00  0.326038D+00  0.451583D-01  0.486247D+00
                26            27            28            29            30 
      1  -0.307488D+00  0.486247D+00  0.421933D+00 -0.901548D+00  0.511850D+00
      2   0.173664D+00 -0.226936D+00 -0.901548D+00  0.192161D+00  0.238031D+00
      3  -0.226936D+00 -0.125836D+01  0.511850D+00  0.238031D+00 -0.257589D+00
                31            32            33            34            35 
      1  -0.679946D+00  0.422205D+00 -0.230190D+00  0.832098D+00 -0.864521D+00
      2   0.422205D+00 -0.124370D+01  0.318610D+00 -0.864521D+00  0.174125D+01
      3  -0.230190D+00  0.318610D+00 -0.835424D+00  0.215695D+00 -0.505675D+00
                36            37            38            39            40 
      1   0.215695D+00 -0.719263D+00 -0.136046D+00 -0.154530D+01 -0.855014D+00
      2  -0.505675D+00 -0.136046D+00 -0.806464D+00  0.364742D+00 -0.199560D+00
      3   0.173106D+01 -0.154530D+01  0.364742D+00 -0.991655D-01  0.663222D+00
                41            42            43            44            45 
      1  -0.199560D+00  0.663222D+00  0.598525D-01 -0.219131D+00  0.250049D+00
      2   0.424478D+00 -0.792704D-01 -0.219131D+00 -0.117724D+01  0.161031D+00
      3  -0.792704D-01  0.934510D+00  0.250049D+00  0.161031D+00 -0.203724D+01
                46            47            48            49            50 
      1  -0.269254D+00  0.713286D+00 -0.104300D+00  0.594533D-01  0.130388D+01
      2   0.713286D+00  0.569843D+00  0.737532D-02  0.130388D+01  0.817648D+00
      3  -0.104300D+00  0.737532D-02 -0.298292D+00 -0.105384D+00  0.671945D+00
                51            52            53            54            55 
      1  -0.105384D+00 -0.360958D-02  0.421769D+00 -0.190898D+00  0.365077D+01
      2   0.671945D+00  0.421769D+00  0.939385D+00  0.235038D+00  0.965159D-01
      3   0.476194D+00 -0.190898D+00  0.235038D+00  0.385340D+00  0.703499D-01
                56            57            58            59            60 
      1   0.965159D-01  0.703499D-01  0.648171D+00  0.137229D+01 -0.351179D+00
      2   0.215185D+01 -0.212404D+00  0.137229D+01  0.150661D+01  0.150874D+00
      3  -0.212404D+00  0.785716D+00 -0.351179D+00  0.150874D+00 -0.108992D+01
                61            62            63            64            65 
      1  -0.105399D+01 -0.616561D-01  0.180659D+01 -0.150791D+01 -0.512423D+00
      2  -0.616561D-01 -0.660868D-02 -0.287182D+00 -0.512423D+00 -0.174919D+00
      3   0.180659D+01 -0.287182D+00 -0.116750D+01 -0.122265D+00 -0.104088D+00
                66            67            68            69            70 
      1  -0.122265D+00 -0.153700D+01 -0.899540D-01 -0.416837D+00 -0.139010D+00
      2  -0.104088D+00 -0.899540D-01 -0.116125D+01 -0.251109D+00  0.110929D-01
      3  -0.452848D-01 -0.416837D+00 -0.251109D+00 -0.446740D+00 -0.239001D+00
                71            72            73            74            75 
      1   0.110929D-01 -0.239001D+00 -0.184683D+01  0.352826D+00 -0.133846D+00
      2  -0.541637D+00 -0.304007D+00  0.352826D+00  0.679246D+00 -0.199509D+00
      3  -0.304007D+00 -0.918816D+00 -0.133846D+00 -0.199509D+00 -0.339865D+00
                76            77            78            79            80 
      1   0.141560D+01 -0.548179D+00  0.411829D+00  0.670361D+00  0.543497D-01
      2  -0.548179D+00  0.128613D+01  0.144894D+00  0.543497D-01 -0.116853D+00
      3   0.411829D+00  0.144894D+00  0.597163D+00  0.176620D+00  0.959391D-01
                81            82            83            84            85 
      1   0.176620D+00 -0.603528D+00 -0.817757D+00  0.529220D+00 -0.775169D+00
      2   0.959391D-01 -0.817757D+00 -0.179302D+00  0.352980D-01  0.523097D+00
      3  -0.836997D+00  0.529220D+00  0.352980D-01  0.600872D+00  0.275005D-01
                86            87            88            89            90 
      1   0.523097D+00  0.275005D-01  0.127773D+01  0.178984D+00 -0.420405D+00
      2  -0.580463D+00  0.128373D+00  0.178984D+00  0.999652D+00 -0.270142D+00
      3   0.128373D+00 -0.239082D+00 -0.420405D+00 -0.270142D+00  0.208477D+01
 Property number 1 -- Alpha(-w,w) derivatives, frequency  3    0.091127:
                 1             2             3             4             5 
      1  -0.580177D+01  0.134840D+01 -0.112033D+01  0.116623D+01 -0.231288D+01
      2   0.134840D+01 -0.343678D+00  0.952158D+00 -0.231288D+01  0.406378D+01
      3  -0.112033D+01  0.952158D+00 -0.631870D+00  0.169330D+01  0.871076D+00
                 6             7             8             9            10 
      1   0.169330D+01 -0.123108D+01  0.165702D+01 -0.236374D+01  0.421659D+01
      2   0.871076D+00  0.165702D+01  0.573168D+00 -0.664584D-01  0.848641D+00
      3  -0.105147D+01 -0.236374D+01 -0.664584D-01 -0.290114D+01  0.238449D+01
                11            12            13            14            15 
      1   0.848641D+00  0.238449D+01  0.842999D+00 -0.992559D+00 -0.127032D+01
      2  -0.355533D+01 -0.150044D+01 -0.992559D+00 -0.408252D+01 -0.228977D+01
      3  -0.150044D+01  0.232428D+00 -0.127032D+01 -0.228977D+01  0.162745D+01
                16            17            18            19            20 
      1   0.100903D+00 -0.862884D+00  0.270324D+00  0.247599D+01 -0.981087D+00
      2  -0.862884D+00 -0.259635D+01  0.118272D+01 -0.981087D+00  0.146181D+01
      3   0.270324D+00  0.118272D+01  0.493876D+01 -0.463356D+00  0.411869D+00
                21            22            23            24            25 
      1  -0.463356D+00 -0.269541D+00  0.509490D+00 -0.424309D+00 -0.533787D+00
      2   0.411869D+00  0.509490D+00 -0.102579D+01  0.326729D+00 -0.309370D+00
      3   0.550344D-01 -0.424309D+00  0.326729D+00  0.460075D-01  0.490672D+00
                26            27            28            29            30 
      1  -0.309370D+00  0.490672D+00  0.424236D+00 -0.907442D+00  0.514489D+00
      2   0.173159D+00 -0.229410D+00 -0.907442D+00  0.194997D+00  0.240606D+00
      3  -0.229410D+00 -0.126614D+01  0.514489D+00  0.240606D+00 -0.259951D+00
                31            32            33            34            35 
      1  -0.684693D+00  0.424319D+00 -0.235490D+00  0.843468D+00 -0.874139D+00
      2   0.424319D+00 -0.125089D+01  0.320504D+00 -0.874139D+00  0.175683D+01
      3  -0.235490D+00  0.320504D+00 -0.845001D+00  0.216340D+00 -0.508898D+00
                36            37            38            39            40 
      1   0.216340D+00 -0.722911D+00 -0.136955D+00 -0.155567D+01 -0.861979D+00
      2  -0.508898D+00 -0.136955D+00 -0.812109D+00  0.369734D+00 -0.200576D+00
      3   0.174384D+01 -0.155567D+01  0.369734D+00 -0.100426D+00  0.670083D+00
                41            42            43            44            45 
      1  -0.200576D+00  0.670083D+00  0.610604D-01 -0.222439D+00  0.249419D+00
      2   0.425513D+00 -0.789613D-01 -0.222439D+00 -0.118706D+01  0.162208D+00
      3  -0.789613D-01  0.938799D+00  0.249419D+00  0.162208D+00 -0.205950D+01
                46            47            48            49            50 
      1  -0.279427D+00  0.715745D+00 -0.101710D+00  0.573890D-01  0.130817D+01
      2   0.715745D+00  0.568427D+00  0.115199D-01  0.130817D+01  0.816558D+00
      3  -0.101710D+00  0.115199D-01 -0.299564D+00 -0.100776D+00  0.676621D+00
                51            52            53            54            55 
      1  -0.100776D+00 -0.725519D-03  0.427302D+00 -0.194735D+00  0.366789D+01
      2   0.676621D+00  0.427302D+00  0.942367D+00  0.228099D+00  0.953971D-01
      3   0.467591D+00 -0.194735D+00  0.228099D+00  0.379763D+00  0.667051D-01
                56            57            58            59            60 
      1   0.953971D-01  0.667051D-01  0.656172D+00  0.137468D+01 -0.357084D+00
      2   0.215900D+01 -0.215203D+00  0.137468D+01  0.151381D+01  0.149951D+00
      3  -0.215203D+00  0.788585D+00 -0.357084D+00  0.149951D+00 -0.109567D+01
                61            62            63            64            65 
      1  -0.106632D+01 -0.615805D-01  0.181589D+01 -0.151632D+01 -0.514778D+00
      2  -0.615805D-01 -0.961962D-02 -0.288062D+00 -0.514778D+00 -0.175765D+00
      3   0.181589D+01 -0.288062D+00 -0.116575D+01 -0.121549D+00 -0.104539D+00
                66            67            68            69            70 
      1  -0.121549D+00 -0.155287D+01 -0.875791D-01 -0.420980D+00 -0.140846D+00
      2  -0.104539D+00 -0.875791D-01 -0.117148D+01 -0.252257D+00  0.110461D-01
      3  -0.471146D-01 -0.420980D+00 -0.252257D+00 -0.451475D+00 -0.239958D+00
                71            72            73            74            75 
      1   0.110461D-01 -0.239958D+00 -0.185850D+01  0.355866D+00 -0.134338D+00
      2  -0.546867D+00 -0.305165D+00  0.355866D+00  0.682041D+00 -0.200970D+00
      3  -0.305165D+00 -0.926366D+00 -0.134338D+00 -0.200970D+00 -0.343099D+00
                76            77            78            79            80 
      1   0.143033D+01 -0.552718D+00  0.416203D+00  0.677410D+00  0.550290D-01
      2  -0.552718D+00  0.129655D+01  0.147606D+00  0.550290D-01 -0.117777D+00
      3   0.416203D+00  0.147606D+00  0.605666D+00  0.179394D+00  0.955666D-01
                81            82            83            84            85 
      1   0.179394D+00 -0.605780D+00 -0.823785D+00  0.531269D+00 -0.784037D+00
      2   0.955666D-01 -0.823785D+00 -0.179392D+00  0.352685D-01  0.529647D+00
      3  -0.842125D+00  0.531269D+00  0.352685D-01  0.605977D+00  0.293709D-01
                86            87            88            89            90 
      1   0.529647D+00  0.293709D-01  0.128992D+01  0.180021D+00 -0.423605D+00
      2  -0.585538D+00  0.128504D+00  0.180021D+00  0.101215D+01 -0.270598D+00
      3   0.128504D+00 -0.241900D+00 -0.423605D+00 -0.270598D+00  0.209865D+01
 Property number 2 -- FD Optical Rotation Tensor derivatives, frequency  1    0.075939:
                 1             2             3             4             5 
      1  -0.262277D-02  0.173342D-01 -0.335366D-01  0.195692D-01  0.418155D-01
      2  -0.138165D+00 -0.897323D-01  0.357266D-01  0.476105D-01  0.664148D-01
      3   0.103944D+00  0.173749D-01  0.161140D+00  0.241482D+00 -0.323152D+00
                 6             7             8             9            10 
      1  -0.122845D+00 -0.187483D-01  0.135256D+00 -0.101503D+00 -0.772308D-02
      2   0.500103D-01 -0.183601D+00  0.153339D+00 -0.105343D+00  0.281112D+00
      3  -0.196037D+00  0.180541D-01 -0.270655D-01 -0.114565D+00  0.915113D-01
                11            12            13            14            15 
      1  -0.139880D+00  0.262704D-01 -0.612900D-01  0.101349D-01 -0.551368D-01
      2   0.143428D+00  0.236268D+00  0.114483D+00 -0.251062D+00 -0.482198D-01
      3  -0.394784D+00 -0.150406D+00 -0.948911D-01  0.164206D+00  0.285012D+00
                16            17            18            19            20 
      1  -0.854512D-01  0.135986D+00  0.496157D-01 -0.802220D-01  0.397750D-01
      2  -0.219273D+00 -0.468384D-01 -0.112726D+00 -0.296663D-01  0.153757D-01
      3  -0.157117D+00  0.249615D+00  0.149991D+00 -0.632821D-01  0.179208D-01
                21            22            23            24            25 
      1  -0.128969D-01 -0.550178D-01  0.228129D-01  0.168878D-01  0.117406D+00
      2  -0.147729D-01 -0.595228D-01 -0.354185D-01  0.153009D-01  0.174740D+00
      3   0.164451D-01 -0.817226D-01  0.740056D-01 -0.552730D-02  0.615388D-01
                26            27            28            29            30 
      1  -0.590669D-01 -0.317000D-01  0.211193D-01  0.162790D-01 -0.160120D-01
      2  -0.852944D-01 -0.620136D-01 -0.109399D-01  0.415398D-01 -0.549719D-01
      3  -0.686491D-01 -0.285438D-01 -0.690644D-01  0.731891D-01 -0.372897D-01
                31            32            33            34            35 
      1   0.659001D-01 -0.660189D-02  0.327205D-01  0.742464D-01 -0.118726D+00
      2  -0.334330D-01  0.828252D-01 -0.306330D-01  0.762717D-01 -0.851028D-01
      3  -0.408361D-01  0.802815D-01 -0.264421D-02  0.119762D+00 -0.919688D-01
                36            37            38            39            40 
      1   0.104710D+00  0.161912D-01  0.246004D-01  0.102455D-01  0.990112D-02
      2   0.148231D+00  0.257954D-01  0.674640D-02 -0.145231D+00 -0.275652D-01
      3   0.910828D-01  0.266741D-01  0.301475D-01  0.624152D-02  0.792894D-02
                41            42            43            44            45 
      1  -0.332528D-01  0.122538D+00 -0.524129D-02 -0.123131D-01 -0.196528D-01
      2   0.109746D-01  0.317052D-03  0.316919D-01 -0.146766D-01 -0.176878D-01
      3   0.133958D-02 -0.174239D-01 -0.922022D-02  0.403680D-01 -0.175905D-01
                46            47            48            49            50 
      1   0.474010D-01  0.176904D-01  0.523861D-01  0.432935D-01 -0.329827D-01
      2  -0.336971D-01 -0.219314D-01  0.287437D-01  0.223112D-01  0.779433D-01
      3  -0.154593D-01  0.166392D-01  0.407888D-02 -0.113165D+00  0.364138D-01
                51            52            53            54            55 
      1   0.653899D-01 -0.114121D+00 -0.748934D-01  0.167339D-01 -0.260727D-01
      2  -0.575544D-02  0.235711D-01  0.946091D-01  0.168174D-01 -0.525926D-01
      3  -0.264110D-01 -0.882473D-01 -0.656018D-01 -0.773346D-01 -0.101054D+00
                56            57            58            59            60 
      1   0.838658D-01 -0.116504D-02  0.207834D-01  0.274109D-03 -0.155385D+00
      2  -0.976851D-01 -0.303758D-01  0.366796D-02  0.250537D-01 -0.191431D-01
      3   0.238897D+00  0.331311D-01  0.259410D+00 -0.641960D-02 -0.194208D-01
                61            62            63            64            65 
      1   0.473099D-01  0.690703D-01 -0.153373D-01 -0.112627D-01 -0.661806D-02
      2  -0.155293D+00 -0.474596D-01  0.271103D+00 -0.863447D-02  0.647903D-02
      3   0.684442D-01 -0.578629D-01  0.554099D-01 -0.382919D-01 -0.117516D-01
                66            67            68            69            70 
      1   0.213613D-01  0.327365D-01 -0.369572D-01  0.130686D-01 -0.558206D-01
      2  -0.152020D-01  0.323095D-01  0.573231D-01  0.797853D-03  0.906290D-01
      3  -0.170713D-01 -0.812949D-01 -0.126081D+00 -0.268055D-01 -0.245628D-01
                71            72            73            74            75 
      1  -0.268680D-01  0.140597D-02  0.508696D-01 -0.432182D-03 -0.222455D-01
      2   0.306161D-01  0.810083D-01 -0.566168D-02  0.504303D-02 -0.202157D-01
      3  -0.369750D-01 -0.637269D-01  0.846825D-01 -0.595381D-01 -0.234732D-02
                76            77            78            79            80 
      1   0.224005D-01  0.399281D-01  0.427125D-01  0.808901D-01 -0.169631D-01
      2  -0.620056D-01  0.132336D-01 -0.127787D-01  0.531769D-01 -0.491402D-01
      3  -0.189971D+00  0.160760D+00 -0.114510D-01  0.578135D-02 -0.110307D-01
                81            82            83            84            85 
      1  -0.266452D-02 -0.767778D-02 -0.526140D-01 -0.244073D-01 -0.982764D-01
      2   0.498499D-01 -0.275499D-01 -0.926292D-02 -0.199686D-01 -0.378555D-01
      3   0.553394D-01 -0.196594D-01  0.719052D-01 -0.139219D-01  0.930596D-01
                86            87            88            89            90 
      1  -0.517091D-02  0.400495D-01 -0.404701D-01 -0.314821D-01 -0.160851D-02
      2  -0.472876D-01  0.501040D-01  0.108086D+00  0.499481D-01 -0.269240D+00
      3  -0.613542D-01  0.207088D-01  0.556716D-02  0.691709D-01 -0.500619D-01
 Property number 2 -- FD Optical Rotation Tensor derivatives, frequency  2    0.085645:
                 1             2             3             4             5 
      1  -0.262917D-02  0.203961D-01 -0.381849D-01  0.232701D-01  0.483733D-01
      2  -0.159676D+00 -0.102589D+00  0.414236D-01  0.518327D-01  0.770475D-01
      3   0.118855D+00  0.213387D-01  0.185072D+00  0.276283D+00 -0.366556D+00
                 6             7             8             9            10 
      1  -0.144093D+00 -0.201790D-01  0.150545D+00 -0.117973D+00 -0.971216D-02
      2   0.586902D-01 -0.207891D+00  0.173273D+00 -0.118629D+00  0.322217D+00
      3  -0.224846D+00  0.211854D-01 -0.317887D-01 -0.131354D+00  0.104345D+00
                11            12            13            14            15 
      1  -0.160155D+00  0.305050D-01 -0.709970D-01  0.103292D-01 -0.583431D-01
      2   0.164932D+00  0.265945D+00  0.134056D+00 -0.286972D+00 -0.567827D-01
      3  -0.451766D+00 -0.173021D+00 -0.110944D+00  0.184499D+00  0.326482D+00
                16            17            18            19            20 
      1  -0.991106D-01  0.156366D+00  0.582663D-01 -0.920889D-01  0.453112D-01
      2  -0.249888D+00 -0.510327D-01 -0.127689D+00 -0.334576D-01  0.173758D-01
      3  -0.180571D+00  0.285355D+00  0.172326D+00 -0.724707D-01  0.199549D-01
                21            22            23            24            25 
      1  -0.144459D-01 -0.627675D-01  0.261184D-01  0.188831D-01  0.134183D+00
      2  -0.163829D-01 -0.679428D-01 -0.405895D-01  0.179496D-01  0.199324D+00
      3   0.187060D-01 -0.927418D-01  0.839072D-01 -0.645231D-02  0.709406D-01
                26            27            28            29            30 
      1  -0.672926D-01 -0.362352D-01  0.243511D-01  0.186995D-01 -0.184025D-01
      2  -0.968670D-01 -0.705661D-01 -0.121039D-01  0.466493D-01 -0.629461D-01
      3  -0.782669D-01 -0.327663D-01 -0.788373D-01  0.834146D-01 -0.422276D-01
                31            32            33            34            35 
      1   0.755079D-01 -0.693183D-02  0.368283D-01  0.846818D-01 -0.134982D+00
      2  -0.384859D-01  0.944444D-01 -0.349927D-01  0.861259D-01 -0.968011D-01
      3  -0.464701D-01  0.915082D-01 -0.273990D-02  0.136909D+00 -0.105358D+00
                36            37            38            39            40 
      1   0.119800D+00  0.186692D-01  0.285372D-01  0.116163D-01  0.112021D-01
      2   0.169015D+00  0.296668D-01  0.760473D-02 -0.165243D+00 -0.317320D-01
      3   0.104276D+00  0.308344D-01  0.350713D-01  0.728225D-02  0.981605D-02
                41            42            43            44            45 
      1  -0.380821D-01  0.139494D+00 -0.613726D-02 -0.138132D-01 -0.230609D-01
      2   0.125671D-01  0.364336D-03  0.358170D-01 -0.169358D-01 -0.206743D-01
      3   0.168362D-02 -0.200499D-01 -0.106512D-01  0.461283D-01 -0.205856D-01
                46            47            48            49            50 
      1   0.543423D-01  0.196572D-01  0.594661D-01  0.492168D-01 -0.377920D-01
      2  -0.385959D-01 -0.245598D-01  0.339397D-01  0.260980D-01  0.891001D-01
      3  -0.179289D-01  0.187123D-01  0.448957D-02 -0.129015D+00  0.422323D-01
                51            52            53            54            55 
      1   0.759825D-01 -0.130375D+00 -0.840054D-01  0.203211D-01 -0.293522D-01
      2  -0.800779D-02  0.258845D-01  0.106491D+00  0.178529D-01 -0.593761D-01
      3  -0.298572D-01 -0.101364D+00 -0.744009D-01 -0.877342D-01 -0.114886D+00
                56            57            58            59            60 
      1   0.961095D-01 -0.153343D-02  0.237870D-01  0.628614D-03 -0.177806D+00
      2  -0.111348D+00 -0.343137D-01  0.415641D-02  0.275937D-01 -0.204232D-01
      3   0.272413D+00  0.375978D-01  0.293907D+00 -0.615588D-02 -0.223813D-01
                61            62            63            64            65 
      1   0.544824D-01  0.790080D-01 -0.172423D-01 -0.131259D-01 -0.762658D-02
      2  -0.175042D+00 -0.537471D-01  0.307538D+00 -0.102510D-01  0.737877D-02
      3   0.785874D-01 -0.663738D-01  0.630661D-01 -0.439984D-01 -0.138076D-01
                66            67            68            69            70 
      1   0.241807D-01  0.372185D-01 -0.424041D-01  0.146965D-01 -0.636753D-01
      2  -0.169490D-01  0.371638D-01  0.654702D-01  0.171035D-02  0.102772D+00
      3  -0.196510D-01 -0.918808D-01 -0.144423D+00 -0.303458D-01 -0.283447D-01
                71            72            73            74            75 
      1  -0.306753D-01  0.140053D-02  0.585318D-01 -0.621027D-03 -0.254786D-01
      2   0.344664D-01  0.929141D-01 -0.692949D-02  0.552250D-02 -0.224209D-01
      3  -0.428391D-01 -0.727808D-01  0.967276D-01 -0.682803D-01 -0.264055D-02
                76            77            78            79            80 
      1   0.256934D-01  0.458814D-01  0.486651D-01  0.923488D-01 -0.193813D-01
      2  -0.716286D-01  0.149876D-01 -0.155579D-01  0.598301D-01 -0.555917D-01
      3  -0.216982D+00  0.183836D+00 -0.127994D-01  0.684706D-02 -0.125364D-01
                81            82            83            84            85 
      1  -0.334033D-02 -0.898600D-02 -0.603086D-01 -0.277227D-01 -0.112131D+00
      2   0.575249D-01 -0.314937D-01 -0.109655D-01 -0.230518D-01 -0.435174D-01
      3   0.628579D-01 -0.226402D-01  0.829488D-01 -0.156077D-01  0.108027D+00
                86            87            88            89            90 
      1  -0.612074D-02  0.456925D-01 -0.462181D-01 -0.357691D-01 -0.193620D-02
      2  -0.536491D-01  0.570500D-01  0.123067D+00  0.567452D-01 -0.307287D+00
      3  -0.705326D-01  0.229891D-01  0.646171D-02  0.800808D-01 -0.573055D-01
 Property number 2 -- FD Optical Rotation Tensor derivatives, frequency  3    0.091127:
                 1             2             3             4             5 
      1  -0.253018D-02  0.222645D-01 -0.408866D-01  0.255858D-01  0.522768D-01
      2  -0.172482D+00 -0.110101D+00  0.448423D-01  0.538214D-01  0.833986D-01
      3   0.127566D+00  0.238589D-01  0.199152D+00  0.296613D+00 -0.391412D+00
                 6             7             8             9            10 
      1  -0.157096D+00 -0.208274D-01  0.158804D+00 -0.127897D+00 -0.110490D-01
      2   0.640903D-01 -0.221742D+00  0.184622D+00 -0.126027D+00  0.346321D+00
      3  -0.241734D+00  0.230856D-01 -0.346637D-01 -0.141214D+00  0.111779D+00
                11            12            13            14            15 
      1  -0.172011D+00  0.330993D-01 -0.768270D-01  0.102453D-01 -0.594268D-01
      2   0.177615D+00  0.282545D+00  0.146045D+00 -0.307864D+00 -0.621311D-01
      3  -0.485039D+00 -0.186352D+00 -0.120681D+00  0.195825D+00  0.350742D+00
                16            17            18            19            20 
      1  -0.107310D+00  0.168357D+00  0.635393D-01 -0.990831D-01  0.485197D-01
      2  -0.267601D+00 -0.530767D-01 -0.136260D+00 -0.355929D-01  0.185114D-01
      3  -0.194390D+00  0.306158D+00  0.185478D+00 -0.778627D-01  0.210667D-01
                21            22            23            24            25 
      1  -0.153070D-01 -0.672529D-01  0.280439D-01  0.199698D-01  0.143969D+00
      2  -0.172384D-01 -0.728417D-01 -0.436191D-01  0.195802D-01  0.213598D+00
      3   0.200107D-01 -0.990535D-01  0.895661D-01 -0.701515D-02  0.765284D-01
                26            27            28            29            30 
      1  -0.720589D-01 -0.388758D-01  0.262669D-01  0.201369D-01 -0.198148D-01
      2  -0.103512D+00 -0.754931D-01 -0.127185D-01  0.494926D-01 -0.676122D-01
      3  -0.838487D-01 -0.352538D-01 -0.845158D-01  0.893435D-01 -0.450415D-01
                31            32            33            34            35 
      1   0.811363D-01 -0.700996D-02  0.391164D-01  0.907461D-01 -0.144352D+00
      2  -0.414807D-01  0.101179D+00 -0.375235D-01  0.917013D-01 -0.103545D+00
      3  -0.497338D-01  0.980185D-01 -0.275318D-02  0.146914D+00 -0.113200D+00
                36            37            38            39            40 
      1   0.128617D+00  0.201370D-01  0.309033D-01  0.123915D-01  0.119391D-01
      2   0.181068D+00  0.319524D-01  0.808741D-02 -0.176780D+00 -0.341966D-01
      3   0.112007D+00  0.333128D-01  0.380359D-01  0.790887D-02  0.110366D-01
                41            42            43            44            45 
      1  -0.409102D-01  0.149274D+00 -0.668664D-02 -0.146471D-01 -0.251568D-01
      2   0.134971D-01  0.398315D-03  0.381563D-01 -0.182823D-01 -0.224870D-01
      3   0.190523D-02 -0.216037D-01 -0.115094D-01  0.494860D-01 -0.224175D-01
                46            47            48            49            50 
      1   0.584111D-01  0.206964D-01  0.635150D-01  0.526215D-01 -0.406115D-01
      2  -0.414682D-01 -0.259911D-01  0.371687D-01  0.284139D-01  0.956109D-01
      3  -0.194071D-01  0.198703D-01  0.469537D-02 -0.138196D+00  0.457223D-01
                51            52            53            54            55 
      1   0.823703D-01 -0.139834D+00 -0.890229D-01  0.226290D-01 -0.311700D-01
      2  -0.958076D-02  0.270491D-01  0.113115D+00  0.182140D-01 -0.632310D-01
      3  -0.318192D-01 -0.109096D+00 -0.794222D-01 -0.936769D-01 -0.122836D+00
                56            57            58            59            60 
      1   0.103299D+00 -0.178626D-02  0.255654D-01  0.893286D-03 -0.190897D+00
      2  -0.119258D+00 -0.365320D-01  0.441761D-02  0.288906D-01 -0.209356D-01
      3   0.291853D+00  0.401522D-01  0.313630D+00 -0.581549D-02 -0.241243D-01
                61            62            63            64            65 
      1   0.587356D-01  0.848325D-01 -0.182912D-01 -0.142594D-01 -0.822647D-02
      2  -0.186178D+00 -0.573413D-01  0.328397D+00 -0.112523D-01  0.789655D-02
      3   0.845622D-01 -0.713488D-01  0.675038D-01 -0.473690D-01 -0.150712D-01
                66            67            68            69            70 
      1   0.257852D-01  0.397924D-01 -0.456088D-01  0.156050D-01 -0.682367D-01
      2  -0.179031D-01  0.400342D-01  0.702125D-01  0.236840D-02  0.109723D+00
      3  -0.211771D-01 -0.979009D-01 -0.155164D+00 -0.323613D-01 -0.306007D-01
                71            72            73            74            75 
      1  -0.328901D-01  0.135962D-02  0.630628D-01 -0.754446D-03 -0.273734D-01
      2   0.366275D-01  0.998978D-01 -0.773930D-02  0.576238D-02 -0.235985D-01
      3  -0.463490D-01 -0.780581D-01  0.103743D+00 -0.734145D-01 -0.280623D-02
                76            77            78            79            80 
      1   0.276204D-01  0.493927D-01  0.521070D-01  0.990054D-01 -0.207887D-01
      2  -0.773583D-01  0.159886D-01 -0.173207D-01  0.635645D-01 -0.592589D-01
      3  -0.232722D+00  0.197302D+00 -0.135395D-01  0.750708D-02 -0.134021D-01
                81            82            83            84            85 
      1  -0.378188D-02 -0.978614D-02 -0.648287D-01 -0.296230D-01 -0.120181D+00
      2   0.620811D-01 -0.337890D-01 -0.120157D-01 -0.248919D-01 -0.468550D-01
      3   0.671822D-01 -0.244096D-01  0.894968D-01 -0.165423D-01  0.117008D+00
                86            87            88            89            90 
      1  -0.671157D-02  0.489772D-01 -0.495615D-01 -0.382337D-01 -0.214258D-02
      2  -0.572949D-01  0.610545D-01  0.131729D+00  0.606512D-01 -0.329391D+00
      3  -0.759480D-01  0.242090D-01  0.699820D-02  0.865903D-01 -0.615510D-01
 Property number 4 -- D-Q polarizability derivatives, frequency  1    0.075939:
                 1             2             3             4             5 
      1   0.109835D+02  0.535410D+01  0.349424D+01  0.114047D+01 -0.528176D+01
      2  -0.440590D+01 -0.119961D+01 -0.251618D+01 -0.564982D+01  0.151754D+01
      3  -0.657756D+01 -0.415449D+01 -0.978053D+00  0.450935D+01  0.376422D+01
      4  -0.793965D+01  0.232375D+01  0.387382D+01  0.612388D+01 -0.812476D+01
      5   0.879744D+01  0.402715D+01 -0.173590D+01 -0.307722D+01 -0.226709D+01
      6   0.582341D+00 -0.299402D+00 -0.596775D+00 -0.189179D+01 -0.690488D+00
                 6             7             8             9            10 
      1  -0.310983D+01  0.314389D+01 -0.166205D+01  0.221459D+01 -0.244355D+02
      2   0.819107D+00 -0.640462D+00 -0.683727D+00  0.320784D+01  0.894842D+01
      3   0.229073D+01 -0.250343D+01  0.234578D+01 -0.542243D+01  0.154871D+02
      4  -0.706954D+00  0.540168D+00  0.157559D+01 -0.408267D+01 -0.104403D+01
      5  -0.716489D+00 -0.170801D+01 -0.179683D+01 -0.451209D+01 -0.127677D+02
      6  -0.388426D+00 -0.109098D+01  0.879260D+00  0.308212D+01 -0.397154D+01
                11            12            13            14            15 
      1  -0.853409D+01 -0.391324D+01 -0.260741D+01  0.550274D+01  0.455395D+01
      2   0.824015D+00  0.212714D+01 -0.207790D+01 -0.615486D+01 -0.238438D+01
      3   0.771008D+01  0.178609D+01  0.468532D+01  0.652121D+00 -0.216957D+01
      4   0.311993D+01 -0.775165D-01 -0.179123D+01  0.342042D+01 -0.352713D+00
      5  -0.101699D+02 -0.116585D+01 -0.109193D+01  0.189940D+01  0.630549D+00
      6   0.290542D+01  0.214791D+01  0.445793D+01 -0.376700D+01 -0.415439D+01
                16            17            18            19            20 
      1  -0.443545D+01 -0.139213D+01 -0.909543D+00  0.118755D+01 -0.323556D+01
      2   0.514021D+01  0.118226D+00 -0.291798D+01 -0.322743D+01  0.399309D+01
      3  -0.704755D+00  0.127391D+01  0.382752D+01  0.203989D+01 -0.757521D+00
      4  -0.198261D+01  0.194057D+01  0.274959D+01  0.248341D+01 -0.152156D+01
      5  -0.397387D+01  0.221074D+01  0.150718D+01 -0.251542D+01  0.179632D+01
      6   0.448797D+01 -0.521601D+01 -0.349428D+01 -0.665611D+00 -0.877862D+00
                21            22            23            24            25 
      1   0.799373D+00  0.118282D+01 -0.289498D+01  0.122487D+01 -0.518477D+00
      2   0.502086D+00 -0.850652D+00  0.229556D+01 -0.201015D+01  0.327843D+01
      3  -0.130146D+01 -0.332172D+00  0.599415D+00  0.785284D+00 -0.275996D+01
      4  -0.183218D+01  0.548016D+00  0.320052D+01 -0.194553D+01  0.184474D+01
      5  -0.107662D+01  0.311506D+01  0.735537D+00 -0.829941D+00  0.422712D+01
      6  -0.466284D+00 -0.236214D+01 -0.121205D+01  0.979573D+00  0.366428D+01
                26            27            28            29            30 
      1   0.431836D+01 -0.288105D+01  0.135140D+01  0.139273D+01 -0.369181D+00
      2  -0.567190D+01  0.132728D+01  0.216420D+01 -0.307180D+01 -0.154373D+00
      3   0.135354D+01  0.155376D+01 -0.351560D+01  0.167907D+01  0.523554D+00
      4  -0.228246D+01  0.230750D+01  0.368549D+01 -0.261950D+01 -0.788537D+00
      5  -0.282110D+01  0.265450D+01  0.256463D-01 -0.145426D+01  0.200266D+01
      6  -0.188370D+01 -0.562028D+00  0.280899D+01 -0.959924D+00 -0.246488D+01
                31            32            33            34            35 
      1   0.267019D+01 -0.322809D+00  0.607293D-01 -0.111443D+01 -0.209634D+01
      2   0.442750D+00 -0.201198D+01 -0.844122D+00 -0.501617D+01  0.489139D+01
      3  -0.311294D+01  0.233479D+01  0.783393D+00  0.613060D+01 -0.279505D+01
      4  -0.294957D+00  0.118188D+01 -0.485171D+00 -0.612682D+00 -0.263542D+01
      5   0.101179D+01 -0.207189D+01  0.100403D+01 -0.256149D+01  0.170945D+01
      6   0.231287D+01 -0.538353D+00  0.374178D+01 -0.650711D+01  0.556659D+01
                36            37            38            39            40 
      1   0.774218D+00  0.329436D+01  0.208845D+01 -0.837294D+00  0.287231D-01
      2  -0.237039D+01  0.248029D+01 -0.619782D+00  0.196086D+00  0.241566D-01
      3   0.159617D+01 -0.577464D+01 -0.146867D+01  0.641209D+00 -0.528797D-01
      4  -0.182308D+00  0.160078D+01 -0.411766D+00 -0.148468D+01 -0.879032D+00
      5  -0.286268D+01 -0.451981D+00 -0.140581D+01  0.100453D+01 -0.983489D+00
      6   0.287139D+01  0.500008D+00 -0.611137D+00  0.292211D+00  0.918452D+00
                41            42            43            44            45 
      1   0.117102D+01 -0.284740D+01  0.840194D+00  0.808917D+00  0.423028D+00
      2   0.103590D+01  0.432523D+00 -0.115460D+01  0.121149D+01 -0.307467D+01
      3  -0.220692D+01  0.241488D+01  0.314408D+00 -0.202040D+01  0.265164D+01
      4  -0.160350D+00  0.105060D+01  0.564513D+00 -0.641879D+00 -0.150560D+01
      5  -0.408569D+00  0.139524D+00 -0.728759D+00  0.150109D+00 -0.116172D+01
      6  -0.353025D+00  0.255509D+01 -0.113531D+01 -0.189561D+01 -0.233858D+01
                46            47            48            49            50 
      1   0.849063D+00  0.289997D+01  0.884641D+00 -0.121655D+00 -0.133997D+01
      2  -0.157971D+01 -0.180854D+01  0.424296D+00  0.377725D+01  0.448803D+01
      3   0.730649D+00 -0.109143D+01 -0.130894D+01 -0.365560D+01 -0.314806D+01
      4   0.147996D+01  0.393165D+00  0.149575D+01 -0.549150D+01  0.109515D+01
      5   0.174034D+01  0.332865D+01 -0.168814D+01  0.119997D+01  0.187252D+01
      6   0.155916D+00  0.287406D+01  0.724134D+00  0.167076D+01  0.446801D+01
                51            52            53            54            55 
      1  -0.948581D-01  0.845387D+00  0.228070D+00  0.179429D+01  0.115668D+02
      2   0.367792D+01 -0.451722D+00 -0.126105D-01  0.218862D+01 -0.829999D+01
      3  -0.358306D+01 -0.393665D+00 -0.215459D+00 -0.398291D+01 -0.326683D+01
      4   0.189362D+01 -0.642383D+00  0.174873D+01  0.445541D+00  0.174882D+01
      5  -0.268160D+00 -0.529600D+00  0.913224D+00 -0.103508D+01 -0.267425D+01
      6  -0.164591D+01  0.141387D+01  0.154265D+01  0.113002D+01 -0.123811D+01
                56            57            58            59            60 
      1  -0.202277D+00 -0.967782D-01  0.905453D+00  0.569781D+01 -0.433693D+00
      2   0.108312D+01 -0.195798D+01  0.226020D+01 -0.369505D+01  0.591917D+00
      3  -0.880840D+00  0.205476D+01 -0.316565D+01 -0.200276D+01 -0.158223D+00
      4  -0.280030D+01 -0.199775D+01 -0.341634D+01  0.484443D+00  0.416564D+00
      5   0.281507D+01 -0.557633D+00 -0.225332D+01 -0.264065D+01 -0.590622D+00
      6  -0.143409D+01  0.146472D+00 -0.257353D+01  0.172668D+01 -0.151640D+01
                61            62            63            64            65 
      1  -0.265076D+01  0.139979D+01  0.422201D+01 -0.163092D+01 -0.981352D-01
      2  -0.187909D+01  0.692974D+00 -0.453273D+00 -0.795722D-02  0.490007D+00
      3   0.452985D+01 -0.209277D+01 -0.376874D+01  0.163887D+01 -0.391872D+00
      4  -0.153526D+01 -0.496614D+00  0.135914D+01 -0.764504D+00 -0.681181D+00
      5   0.408263D+01 -0.251813D+00  0.448527D+01  0.297995D+01  0.114784D+01
      6  -0.166498D+01  0.594759D+00 -0.175376D+01  0.406391D+00 -0.818783D-01
                66            67            68            69            70 
      1  -0.950103D+00 -0.647283D+01 -0.643211D+00 -0.299777D+01 -0.586700D-01
      2   0.449886D+00  0.893486D+01 -0.556518D+00  0.277751D+01 -0.255930D+01
      3   0.500217D+00 -0.246202D+01  0.119973D+01  0.220265D+00  0.261797D+01
      4   0.492744D+00  0.160735D+01 -0.393829D+01 -0.290680D+00  0.397184D+00
      5  -0.424586D+00 -0.244628D+01 -0.886761D-01 -0.158645D+01  0.110901D+01
      6  -0.802156D+00  0.257329D+01 -0.171513D+00 -0.203005D+00  0.345524D+01
                71            72            73            74            75 
      1  -0.662384D-01 -0.372310D+01 -0.244161D+01  0.117818D+01 -0.183669D+01
      2  -0.244530D+01  0.273225D+01  0.253239D+00 -0.960404D+00 -0.460554D-01
      3   0.251154D+01  0.990845D+00  0.218837D+01 -0.217778D+00  0.188275D+01
      4  -0.184056D+01 -0.237663D+01 -0.116227D+01  0.154871D+01 -0.461695D-01
      5   0.985878D+00 -0.238425D+01  0.263367D+01 -0.396297D+00 -0.630140D+00
      6   0.156232D+01 -0.848965D+00 -0.130330D+00  0.175180D+00  0.658223D+00
                76            77            78            79            80 
      1   0.551005D+01 -0.243246D+01  0.280503D+01  0.207070D+01 -0.307031D+00
      2  -0.850699D+01  0.999451D+00 -0.219003D+01 -0.258233D+01  0.146292D+00
      3   0.299695D+01  0.143301D+01 -0.615002D+00  0.511624D+00  0.160739D+00
      4   0.257331D+01  0.386722D+01 -0.129720D+00 -0.539047D+00 -0.191671D+00
      5   0.392465D+01  0.156249D+01  0.244285D+01  0.200328D+01 -0.795478D+00
      6   0.130360D+00 -0.691850D+00 -0.171806D+01 -0.451454D+01  0.253109D+01
                81            82            83            84            85 
      1  -0.241957D+01 -0.724601D+00 -0.843367D+00  0.282503D+01 -0.223580D+01
      2   0.542279D+00  0.367484D+01  0.126991D+01  0.975096D+00  0.164616D+01
      3   0.187729D+01 -0.295024D+01 -0.426541D+00 -0.380013D+01  0.589644D+00
      4   0.212254D+01 -0.880073D-01  0.648760D+00  0.364514D+00  0.102050D+01
      5  -0.800482D+00  0.223234D+01  0.311242D+00  0.427169D+01  0.600776D+00
      6   0.200443D+01  0.155195D+01 -0.169037D+01  0.361147D+00 -0.523620D+01
                86            87            88            89            90 
      1   0.543616D+00  0.838975D+00  0.187762D+01 -0.123135D+01  0.505117D+00
      2   0.208192D+01 -0.870289D+00  0.586503D+01  0.175317D+01 -0.118197D+01
      3  -0.262554D+01  0.313141D-01 -0.774265D+01 -0.521818D+00  0.676849D+00
      4  -0.102625D+01  0.549979D+00  0.196538D+01  0.282371D+01 -0.837115D+00
      5   0.140693D+01 -0.225285D+00 -0.192031D+01 -0.304189D+00  0.410935D+01
      6   0.122959D+01  0.234975D+01  0.189156D+01 -0.368134D+01 -0.903497D-01
 Property number 4 -- D-Q polarizability derivatives, frequency  2    0.085645:
                 1             2             3             4             5 
      1   0.110363D+02  0.541454D+01  0.352111D+01  0.115249D+01 -0.530840D+01
      2  -0.442783D+01 -0.122092D+01 -0.253010D+01 -0.569059D+01  0.153322D+01
      3  -0.660845D+01 -0.419362D+01 -0.991009D+00  0.453809D+01  0.377518D+01
      4  -0.798552D+01  0.235783D+01  0.393930D+01  0.618105D+01 -0.816930D+01
      5   0.887589D+01  0.408686D+01 -0.174826D+01 -0.308023D+01 -0.229644D+01
      6   0.584773D+00 -0.311165D+00 -0.580428D+00 -0.191042D+01 -0.691964D+00
                 6             7             8             9            10 
      1  -0.313900D+01  0.317312D+01 -0.170250D+01  0.224734D+01 -0.245263D+02
      2   0.827153D+00 -0.622067D+00 -0.685606D+00  0.319371D+01  0.897375D+01
      3   0.231184D+01 -0.255105D+01  0.238811D+01 -0.544105D+01  0.155525D+02
      4  -0.694045D+00  0.565932D+00  0.159240D+01 -0.411484D+01 -0.106069D+01
      5  -0.715264D+00 -0.174123D+01 -0.178238D+01 -0.456651D+01 -0.128733D+02
      6  -0.393988D+00 -0.109145D+01  0.876934D+00  0.310521D+01 -0.398789D+01
                11            12            13            14            15 
      1  -0.860618D+01 -0.395918D+01 -0.263824D+01  0.553608D+01  0.465165D+01
      2   0.831131D+00  0.215110D+01 -0.208992D+01 -0.620691D+01 -0.244334D+01
      3   0.777505D+01  0.180808D+01  0.472816D+01  0.670836D+00 -0.220831D+01
      4   0.312193D+01 -0.114784D+00 -0.177892D+01  0.341211D+01 -0.393604D+00
      5  -0.102851D+02 -0.113227D+01 -0.113058D+01  0.194258D+01  0.606996D+00
      6   0.290655D+01  0.215052D+01  0.448989D+01 -0.383744D+01 -0.414853D+01
                16            17            18            19            20 
      1  -0.450659D+01 -0.132975D+01 -0.103019D+01  0.118192D+01 -0.326695D+01
      2   0.519533D+01  0.764048D-01 -0.292520D+01 -0.324612D+01  0.402703D+01
      3  -0.688733D+00  0.125334D+01  0.395539D+01  0.206420D+01 -0.760085D+00
      4  -0.202014D+01  0.192674D+01  0.277556D+01  0.252630D+01 -0.154374D+01
      5  -0.396523D+01  0.217263D+01  0.149578D+01 -0.251500D+01  0.179901D+01
      6   0.451388D+01 -0.521811D+01 -0.353716D+01 -0.690853D+00 -0.866540D+00
                21            22            23            24            25 
      1   0.817037D+00  0.120788D+01 -0.292209D+01  0.122632D+01 -0.508282D+00
      2   0.498083D+00 -0.877785D+00  0.231247D+01 -0.200983D+01  0.329385D+01
      3  -0.131512D+01 -0.330095D+00  0.609616D+00  0.783503D+00 -0.278557D+01
      4  -0.184788D+01  0.547751D+00  0.322628D+01 -0.195260D+01  0.184635D+01
      5  -0.109527D+01  0.312996D+01  0.740906D+00 -0.826637D+00  0.425155D+01
      6  -0.465683D+00 -0.236961D+01 -0.121136D+01  0.982066D+00  0.371459D+01
                26            27            28            29            30 
      1   0.434689D+01 -0.291493D+01  0.136325D+01  0.140042D+01 -0.371553D+00
      2  -0.570995D+01  0.135264D+01  0.218556D+01 -0.309370D+01 -0.153178D+00
      3   0.136306D+01  0.156230D+01 -0.354881D+01  0.169328D+01  0.524731D+00
      4  -0.228871D+01  0.233474D+01  0.371176D+01 -0.263570D+01 -0.784833D+00
      5  -0.282715D+01  0.269197D+01  0.185766D-01 -0.146190D+01  0.202648D+01
      6  -0.190960D+01 -0.581107D+00  0.283793D+01 -0.957545D+00 -0.249424D+01
                31            32            33            34            35 
      1   0.268169D+01 -0.318879D+00  0.533753D-01 -0.111051D+01 -0.213895D+01
      2   0.456666D+00 -0.203127D+01 -0.851021D+00 -0.507808D+01  0.495399D+01
      3  -0.313835D+01  0.235015D+01  0.797646D+00  0.618860D+01 -0.281504D+01
      4  -0.301020D+00  0.119340D+01 -0.480937D+00 -0.599355D+00 -0.265366D+01
      5   0.103584D+01 -0.209024D+01  0.102458D+01 -0.257995D+01  0.172450D+01
      6   0.232946D+01 -0.527365D+00  0.373666D+01 -0.655441D+01  0.558365D+01
                36            37            38            39            40 
      1   0.794256D+00  0.332725D+01  0.209858D+01 -0.840270D+00  0.679160D-02
      2  -0.239951D+01  0.250328D+01 -0.629324D+00  0.199165D+00  0.305190D-01
      3   0.160525D+01 -0.583053D+01 -0.146926D+01  0.641105D+00 -0.373106D-01
      4  -0.183640D+00  0.161684D+01 -0.408261D+00 -0.149990D+01 -0.883430D+00
      5  -0.289849D+01 -0.453274D+00 -0.141115D+01  0.100753D+01 -0.981756D+00
      6   0.291113D+01  0.501664D+00 -0.612926D+00  0.298133D+00  0.931016D+00
                41            42            43            44            45 
      1   0.117304D+01 -0.287922D+01  0.847172D+00  0.816796D+00  0.497515D+00
      2   0.105281D+01  0.442049D+00 -0.116422D+01  0.122070D+01 -0.308032D+01
      3  -0.222585D+01  0.243717D+01  0.317053D+00 -0.203750D+01  0.258280D+01
      4  -0.157763D+00  0.106228D+01  0.568469D+00 -0.653550D+00 -0.152144D+01
      5  -0.414248D+00  0.139617D+00 -0.733615D+00  0.155277D+00 -0.117548D+01
      6  -0.351435D+00  0.256416D+01 -0.114867D+01 -0.191726D+01 -0.234235D+01
                46            47            48            49            50 
      1   0.842621D+00  0.291571D+01  0.901115D+00 -0.107868D+00 -0.133380D+01
      2  -0.159491D+01 -0.181372D+01  0.427450D+00  0.379850D+01  0.450724D+01
      3   0.752285D+00 -0.110199D+01 -0.132856D+01 -0.369063D+01 -0.317345D+01
      4   0.146592D+01  0.410770D+00  0.149785D+01 -0.554277D+01  0.111709D+01
      5   0.174146D+01  0.334619D+01 -0.169881D+01  0.119159D+01  0.188100D+01
      6   0.154491D+00  0.290079D+01  0.730518D+00  0.167704D+01  0.450600D+01
                51            52            53            54            55 
      1  -0.113681D+00  0.855438D+00  0.219053D+00  0.179366D+01  0.116153D+02
      2   0.372360D+01 -0.450058D+00 -0.113312D-02  0.220718D+01 -0.834425D+01
      3  -0.360992D+01 -0.405381D+00 -0.217920D+00 -0.400085D+01 -0.327109D+01
      4   0.190745D+01 -0.658169D+00  0.176552D+01  0.440910D+00  0.175592D+01
      5  -0.251164D+00 -0.517619D+00  0.937406D+00 -0.102365D+01 -0.270025D+01
      6  -0.164902D+01  0.141111D+01  0.156274D+01  0.114459D+01 -0.124129D+01
                56            57            58            59            60 
      1  -0.204872D+00 -0.988247D-01  0.931051D+00  0.572027D+01 -0.453024D+00
      2   0.109529D+01 -0.199228D+01  0.226483D+01 -0.370384D+01  0.599999D+00
      3  -0.890422D+00  0.209110D+01 -0.319588D+01 -0.201643D+01 -0.146975D+00
      4  -0.282751D+01 -0.200966D+01 -0.348910D+01  0.491756D+00  0.411611D+00
      5   0.285902D+01 -0.584772D+00 -0.227626D+01 -0.266901D+01 -0.611946D+00
      6  -0.144682D+01  0.143734D+00 -0.259349D+01  0.174703D+01 -0.151624D+01
                61            62            63            64            65 
      1  -0.266985D+01  0.141790D+01  0.429553D+01 -0.164641D+01 -0.964166D-01
      2  -0.190007D+01  0.691129D+00 -0.469612D+00 -0.103577D-01  0.489942D+00
      3   0.456991D+01 -0.210903D+01 -0.382592D+01  0.165677D+01 -0.393526D+00
      4  -0.154992D+01 -0.505578D+00  0.136813D+01 -0.781718D+00 -0.699455D+00
      5   0.407690D+01 -0.266693D+00  0.455733D+01  0.300121D+01  0.115183D+01
      6  -0.167684D+01  0.617661D+00 -0.177279D+01  0.406122D+00 -0.854584D-01
                66            67            68            69            70 
      1  -0.962742D+00 -0.655741D+01 -0.640719D+00 -0.302742D+01 -0.675462D-01
      2   0.455472D+00  0.902065D+01 -0.569461D+00  0.279867D+01 -0.257608D+01
      3   0.507270D+00 -0.246325D+01  0.121018D+01  0.228746D+00  0.264363D+01
      4   0.497381D+00  0.161816D+01 -0.399144D+01 -0.288586D+00  0.389280D+00
      5  -0.435279D+00 -0.247951D+01 -0.937063D-01 -0.161203D+01  0.112276D+01
      6  -0.809291D+00  0.258819D+01 -0.177451D+00 -0.207219D+00  0.347843D+01
                71            72            73            74            75 
      1  -0.635167D-01 -0.375877D+01 -0.246617D+01  0.119272D+01 -0.185135D+01
      2  -0.246258D+01  0.275533D+01  0.249557D+00 -0.967112D+00 -0.437553D-01
      3   0.252609D+01  0.100344D+01  0.221661D+01 -0.225611D+00  0.189510D+01
      4  -0.186912D+01 -0.239576D+01 -0.115715D+01  0.154421D+01 -0.443062D-01
      5   0.995860D+00 -0.241929D+01  0.265837D+01 -0.401489D+00 -0.645790D+00
      6   0.156790D+01 -0.861509D+00 -0.130047D+00  0.181167D+00  0.659545D+00
                76            77            78            79            80 
      1   0.558457D+01 -0.245624D+01  0.284206D+01  0.209416D+01 -0.313167D+00
      2  -0.858386D+01  0.100609D+01 -0.220980D+01 -0.260511D+01  0.148845D+00
      3   0.299929D+01  0.145016D+01 -0.632268D+00  0.510945D+00  0.164323D+00
      4   0.258518D+01  0.391613D+01 -0.117066D+00 -0.531510D+00 -0.191789D+00
      5   0.397698D+01  0.158175D+01  0.248213D+01  0.203261D+01 -0.807370D+00
      6   0.138421D+00 -0.698076D+00 -0.173242D+01 -0.455109D+01  0.254989D+01
                81            82            83            84            85 
      1  -0.244633D+01 -0.727795D+00 -0.847556D+00  0.284466D+01 -0.226096D+01
      2   0.546386D+00  0.371132D+01  0.128137D+01  0.988038D+00  0.167097D+01
      3   0.189994D+01 -0.298352D+01 -0.433819D+00 -0.383269D+01  0.589983D+00
      4   0.214276D+01 -0.916757D-01  0.679925D+00  0.366835D+00  0.106310D+01
      5  -0.815872D+00  0.224634D+01  0.316769D+00  0.430643D+01  0.613958D+00
      6   0.201696D+01  0.156509D+01 -0.170806D+01  0.367196D+00 -0.528050D+01
                86            87            88            89            90 
      1   0.550742D+00  0.838923D+00  0.189289D+01 -0.125276D+01  0.521908D+00
      2   0.209965D+01 -0.877493D+00  0.590651D+01  0.176819D+01 -0.118060D+01
      3  -0.265039D+01  0.385702D-01 -0.779940D+01 -0.515432D+00  0.658696D+00
      4  -0.103826D+01  0.545491D+00  0.198907D+01  0.287776D+01 -0.846412D+00
      5   0.141742D+01 -0.236281D+00 -0.194618D+01 -0.302092D+00  0.415422D+01
      6   0.124206D+01  0.236452D+01  0.190445D+01 -0.371380D+01 -0.829786D-01
 Property number 4 -- D-Q polarizability derivatives, frequency  3    0.091127:
                 1             2             3             4             5 
      1   0.110696D+02  0.545231D+01  0.353750D+01  0.115982D+01 -0.532522D+01
      2  -0.444205D+01 -0.123401D+01 -0.253853D+01 -0.571596D+01  0.154352D+01
      3  -0.662752D+01 -0.421830D+01 -0.998975D+00  0.455614D+01  0.378170D+01
      4  -0.801429D+01  0.237903D+01  0.398075D+01  0.621693D+01 -0.819702D+01
      5   0.892455D+01  0.412458D+01 -0.175552D+01 -0.308136D+01 -0.231469D+01
      6   0.586625D+00 -0.319012D+00 -0.570236D+00 -0.192232D+01 -0.693157D+00
                 6             7             8             9            10 
      1  -0.315614D+01  0.319137D+01 -0.172744D+01  0.226822D+01 -0.245824D+02
      2   0.831529D+00 -0.610116D+00 -0.687140D+00  0.318404D+01  0.898976D+01
      3   0.232462D+01 -0.258126D+01  0.241458D+01 -0.545226D+01  0.155926D+02
      4  -0.685475D+00  0.582839D+00  0.160251D+01 -0.413544D+01 -0.107102D+01
      5  -0.715578D+00 -0.176182D+01 -0.177368D+01 -0.460097D+01 -0.129392D+02
      6  -0.397071D+00 -0.109202D+01  0.875763D+00  0.311911D+01 -0.399822D+01
                11            12            13            14            15 
      1  -0.865103D+01 -0.398821D+01 -0.265730D+01  0.555673D+01  0.471243D+01
      2   0.835545D+00  0.216598D+01 -0.209749D+01 -0.623960D+01 -0.248020D+01
      3   0.781548D+01  0.182223D+01  0.475479D+01  0.682870D+00 -0.223223D+01
      4   0.312340D+01 -0.138344D+00 -0.177047D+01  0.340681D+01 -0.419883D+00
      5  -0.103572D+02 -0.111151D+01 -0.115568D+01  0.196950D+01  0.592791D+00
      6   0.290697D+01  0.215242D+01  0.451028D+01 -0.388161D+01 -0.414484D+01
                16            17            18            19            20 
      1  -0.455191D+01 -0.129046D+01 -0.110671D+01  0.117826D+01 -0.328659D+01
      2   0.522980D+01  0.500999D-01 -0.292912D+01 -0.325761D+01  0.404816D+01
      3  -0.677893D+00  0.124036D+01  0.403583D+01  0.207935D+01 -0.761570D+00
      4  -0.204405D+01  0.191793D+01  0.279243D+01  0.255358D+01 -0.155780D+01
      5  -0.395971D+01  0.214821D+01  0.148881D+01 -0.251440D+01  0.180051D+01
      6   0.452988D+01 -0.521919D+01 -0.356373D+01 -0.707174D+00 -0.859123D+00
                21            22            23            24            25 
      1   0.828254D+00  0.122368D+01 -0.293918D+01  0.122717D+01 -0.501682D+00
[...]
      1  -0.188703D+01 -0.869553D+01  0.702998D+01  0.485865D+00  0.864673D+01
      2   0.825021D+00  0.102499D+02 -0.591140D+01 -0.706964D+00 -0.601768D+01
      3   0.106201D+01 -0.155433D+01 -0.111858D+01  0.221100D+00 -0.262905D+01
      4   0.513808D+01 -0.623268D+01  0.507008D+01 -0.331187D+01  0.596187D+01
      5  -0.260427D+01  0.610272D+01 -0.655706D+01  0.538504D+01 -0.749361D+01
      6   0.134927D+01 -0.122285D+02  0.116357D+02 -0.248991D+01  0.135004D+02
                36            37            38            39            40 
      1  -0.107185D+02  0.528719D+00 -0.118121D+00  0.292760D+00 -0.341255D+00
      2   0.789123D+00 -0.347675D+01  0.295128D-02 -0.170283D-01  0.542183D+00
      3   0.992936D+01  0.294803D+01  0.115169D+00 -0.275731D+00 -0.200929D+00
      4  -0.606812D+01 -0.357551D+00  0.244097D+01 -0.820404D+00  0.179061D+01
      5   0.119892D+02  0.817088D+00 -0.969480D+00  0.883905D+01 -0.112838D+01
      6  -0.161973D+02 -0.949137D+00 -0.257642D-01  0.538031D-01 -0.131829D-01
                41            42            43            44            45 
      1  -0.442101D+01  0.432425D+01 -0.677824D+00  0.367635D+01 -0.257721D+02
      2   0.403311D+00  0.557173D+00 -0.119095D+01  0.327813D+00 -0.150471D+02
      3   0.401770D+01 -0.488142D+01  0.186877D+01 -0.400416D+01  0.408192D+02
      4  -0.518814D+00  0.799835D+00 -0.351520D+00  0.327990D+00 -0.956407D+00
      5   0.117347D+01 -0.108276D+01  0.578094D+01 -0.773802D+00  0.433808D+01
      6  -0.283141D+01  0.802003D+01 -0.883363D+00  0.673896D+01 -0.632834D+01
                46            47            48            49            50 
      1   0.672346D+01  0.642545D+01 -0.260714D+01  0.552449D+00 -0.111763D+02
      2   0.444761D-01 -0.257831D+01 -0.250953D+01  0.364541D+01  0.191853D+02
      3  -0.676793D+01 -0.384714D+01  0.511668D+01 -0.419786D+01 -0.800893D+01
      4   0.111012D+02  0.147771D+02  0.336055D+01  0.142668D+02  0.196104D+02
      5   0.212589D+01  0.312437D+01  0.919043D+01  0.380648D+01  0.812687D+00
      6   0.339814D+01  0.140504D+01  0.383876D+00 -0.175362D+01  0.311822D+01
                51            52            53            54            55 
      1  -0.220226D+01  0.896949D+00 -0.193720D+01 -0.743986D+01  0.305542D+01
      2  -0.191643D+01 -0.475627D+00 -0.168088D+00  0.585414D-01 -0.553027D+01
      3   0.411869D+01 -0.421323D+00  0.210529D+01  0.738132D+01  0.247485D+01
      4   0.125037D+01  0.239033D+01  0.442525D+01  0.543337D+01  0.285989D+01
      5   0.724169D+00  0.481304D+01  0.506662D+01  0.529147D+01 -0.118261D+02
      6   0.124915D+02  0.274941D+01  0.963375D+01  0.624312D+01 -0.309713D+01
                56            57            58            59            60 
      1   0.259251D+01 -0.884747D+01  0.180622D+01 -0.160378D+02 -0.375647D+01
      2   0.205521D+00  0.346915D+01  0.781049D+00  0.259733D+01  0.495389D+00
      3  -0.279803D+01  0.537833D+01 -0.258727D+01  0.134405D+02  0.326108D+01
      4  -0.194477D+02 -0.495992D+01 -0.274749D+02  0.588140D+01 -0.783479D+01
      5  -0.472747D+01  0.177559D+01 -0.661930D+01 -0.745179D+01 -0.797482D+01
      6  -0.125945D+01 -0.725852D+00 -0.193410D+01 -0.355380D+01 -0.216483D+01
                61            62            63            64            65 
      1  -0.105046D+02 -0.463567D+01  0.707310D+01  0.189516D+02  0.846226D+01
      2   0.272784D+01 -0.472829D+00  0.203843D+01 -0.666995D+01 -0.180043D+01
      3   0.777672D+01  0.510850D+01 -0.911153D+01 -0.122816D+02 -0.666182D+01
      4  -0.663820D+01 -0.859315D+01 -0.791659D+01  0.145406D+02  0.155692D+02
      5  -0.128488D+01 -0.758748D+01  0.139986D+02  0.691336D+01  0.439103D+01
      6  -0.181693D+01 -0.146119D+01  0.197324D+01  0.259770D+01  0.938900D+00
                66            67            68            69            70 
      1   0.546108D+01  0.113533D+02  0.491161D+01  0.174936D+01  0.786339D+01
      2  -0.203983D+01 -0.174180D+01  0.630556D+01  0.838014D+00 -0.382570D+01
      3  -0.342125D+01 -0.961148D+01 -0.112172D+02 -0.258737D+01 -0.403769D+01
      4   0.506372D+01  0.199495D+02  0.197908D+02  0.715745D+01  0.723278D+01
      5   0.682139D+01  0.572885D+01  0.649115D+01  0.799981D+01  0.888133D+01
      6   0.133712D+01  0.247671D+01  0.425792D+01  0.453421D+01  0.322415D+01
                71            72            73            74            75 
      1   0.139790D+01  0.942222D+00  0.200789D+02 -0.106487D+02  0.141713D+01
      2   0.548112D+00 -0.252539D+01 -0.660973D+01  0.302903D+01 -0.482561D+00
      3  -0.194601D+01  0.158317D+01 -0.134692D+02  0.761962D+01 -0.934567D+00
      4   0.831434D+01  0.687393D+01 -0.146765D+02  0.171277D+02 -0.336155D+00
      5   0.682295D+01  0.734158D+01  0.108466D+01 -0.900604D-01  0.467226D+01
      6   0.477577D+01  0.421123D+01  0.356564D+00 -0.341582D+00 -0.880068D+00
                76            77            78            79            80 
      1  -0.138538D+02  0.676655D+01 -0.369020D+00  0.278472D+01  0.485554D+00
      2   0.220038D+01  0.664253D+01 -0.166955D+00 -0.888531D+00 -0.393240D+00
      3   0.116534D+02 -0.134091D+02  0.535975D+00 -0.189619D+01 -0.923133D-01
      4   0.220057D+02 -0.255654D+02  0.200230D+01 -0.500699D+00  0.263697D+01
      5   0.457318D+00  0.169928D+01 -0.502336D+01  0.595104D+01 -0.386338D+01
      6  -0.681359D+00  0.114992D+01  0.377870D+01 -0.206318D+01  0.418313D+01
                81            82            83            84            85 
      1   0.634730D+00  0.380301D+00  0.303180D+00 -0.299260D+01  0.866672D+00
      2  -0.974285D+00 -0.177494D+01 -0.417822D+00  0.143561D+01 -0.802338D+00
      3   0.339555D+00  0.139463D+01  0.114642D+00  0.155699D+01 -0.643344D-01
      4  -0.320990D+01  0.645198D-01  0.295248D+01 -0.609742D+00  0.470373D+01
      5  -0.187998D+00 -0.118863D+01 -0.386750D+00  0.490348D+01 -0.718829D+00
      6  -0.130967D+01 -0.751367D+00  0.591962D+00  0.475873D+00 -0.410406D+00
                86            87            88            89            90 
      1  -0.759565D+00  0.227553D+01 -0.448174D+01  0.249904D+01 -0.123331D+02
      2   0.717105D+00 -0.178110D+00  0.425249D+01 -0.184624D+00 -0.968434D+01
      3   0.424602D-01 -0.209742D+01  0.229243D+00 -0.231441D+01  0.220174D+02
      4   0.122764D+01 -0.246125D+01 -0.120114D+01 -0.427800D+01  0.447915D+01
      5  -0.219038D+01  0.433571D+01  0.740466D+01  0.390281D+01 -0.243376D+02
      6  -0.198895D+01  0.600028D+01  0.942913D+00  0.540995D+01 -0.547006D+01

 ----------------------------------------------------------------------

 Electric dipole moment (input orientation):
 (Debye = 10**-18 statcoulomb cm , SI units = C m)
                  (au)            (Debye)         (10**-30 SI)
   Tot        0.797694D+00      0.202754D+01      0.676313D+01
   x          0.348543D+00      0.885909D+00      0.295507D+01
   y          0.666094D+00      0.169304D+01      0.564738D+01
   z          0.266744D+00      0.677995D+00      0.226155D+01

 Dipole polarizability, Alpha (input orientation).
 (esu units = cm**3 , SI units = C**2 m**2 J**-1)
 Alpha(-w;w) w=  600.0nm:
                  (au)         (10**-24 esu)      (10**-40 SI)
   iso        0.428113D+02      0.634397D+01      0.705862D+01
   aniso      0.101846D+02      0.150920D+01      0.167921D+01
   xx         0.488403D+02      0.723739D+01      0.805268D+01
   yx        -0.251379D+01     -0.372505D+00     -0.414468D+00
   yy         0.398558D+02      0.590602D+01      0.657134D+01
   zx         0.796305D+00      0.118000D+00      0.131293D+00
   zy        -0.596942D+00     -0.884577D-01     -0.984225D-01
   zz         0.397376D+02      0.588851D+01      0.655185D+01
 Alpha(-w;w) w=  532.0nm:
                  (au)         (10**-24 esu)      (10**-40 SI)
   iso        0.430872D+02      0.638487D+01      0.710413D+01
   aniso      0.102924D+02      0.152518D+01      0.169699D+01
   xx         0.491769D+02      0.728726D+01      0.810817D+01
   yx        -0.254921D+01     -0.377754D+00     -0.420308D+00
   yy         0.400924D+02      0.594108D+01      0.661034D+01
   zx         0.801366D+00      0.118750D+00      0.132127D+00
   zy        -0.596012D+00     -0.883199D-01     -0.982692D-01
   zz         0.399924D+02      0.592627D+01      0.659386D+01
 Alpha(-w;w) w=  500.0nm:
                  (au)         (10**-24 esu)      (10**-40 SI)
   iso        0.432608D+02      0.641059D+01      0.713274D+01
   aniso      0.103601D+02      0.153520D+01      0.170814D+01
   xx         0.493884D+02      0.731861D+01      0.814305D+01
   yx        -0.257161D+01     -0.381073D+00     -0.424001D+00
   yy         0.402410D+02      0.596311D+01      0.663485D+01
   zx         0.804436D+00      0.119205D+00      0.132634D+00
   zy        -0.595165D+00     -0.881943D-01     -0.981294D-01
   zz         0.401530D+02      0.595006D+01      0.662033D+01

 ----------------------------------------------------------------------

 Dipole orientation:
     6         -1.96146986          1.19607484          0.07691001
     6         -0.13445477         -0.87768772          0.38487325
     1         -3.98814891          0.82164127          0.21895448
     1         -1.37746967          3.13124547          0.50820105
     1         -0.90916238         -2.76827570          0.72215156
     8         -0.73864835          0.08992431         -2.09056301
     6          2.52419322         -0.45689588          1.30963556
     1          2.63446051         -0.78065627          3.36042259
     1          3.83567319         -1.77342044          0.38096973
     1          3.14421456          1.48111199          0.90529140

 Electric dipole moment (dipole orientation):
 (Debye = 10**-18 statcoulomb cm , SI units = C m)
                  (au)            (Debye)         (10**-30 SI)
   Tot        0.797694D+00      0.202754D+01      0.676313D+01
   x          0.000000D+00      0.000000D+00      0.000000D+00
   y          0.000000D+00      0.000000D+00      0.000000D+00
   z          0.797694D+00      0.202754D+01      0.676313D+01

 Dipole polarizability, Alpha (dipole orientation).
 (esu units = cm**3 , SI units = C**2 m**2 J**-1)
 Alpha(-w;w) w=  600.0nm:
                  (au)         (10**-24 esu)      (10**-40 SI)
   iso        0.428113D+02      0.634397D+01      0.705862D+01
   aniso      0.101846D+02      0.150920D+01      0.167921D+01
   xx         0.468698D+02      0.694539D+01      0.772779D+01
   yx        -0.385110D+01     -0.570674D+00     -0.634961D+00
   yy         0.419411D+02      0.621502D+01      0.691515D+01
   zx         0.223138D+01      0.330657D+00      0.367906D+00
   zy        -0.103330D+01     -0.153119D+00     -0.170368D+00
   zz         0.396229D+02      0.587150D+01      0.653293D+01
 Alpha(-w;w) w=  532.0nm:
                  (au)         (10**-24 esu)      (10**-40 SI)
   iso        0.430872D+02      0.638487D+01      0.710413D+01
   aniso      0.102924D+02      0.152518D+01      0.169699D+01
   xx         0.471963D+02      0.699378D+01      0.778162D+01
   yx        -0.388802D+01     -0.576146D+00     -0.641048D+00
   yy         0.422086D+02      0.625467D+01      0.695926D+01
   zx         0.224510D+01      0.332689D+00      0.370167D+00
   zy        -0.105244D+01     -0.155955D+00     -0.173523D+00
   zz         0.398567D+02      0.590616D+01      0.657149D+01
 Alpha(-w;w) w=  500.0nm:
                  (au)         (10**-24 esu)      (10**-40 SI)
   iso        0.432608D+02      0.641059D+01      0.713274D+01
   aniso      0.103601D+02      0.153520D+01      0.170814D+01
   xx         0.474018D+02      0.702423D+01      0.781550D+01
   yx        -0.391106D+01     -0.579559D+00     -0.644846D+00
   yy         0.423769D+02      0.627960D+01      0.698700D+01
   zx         0.225346D+01      0.333928D+00      0.371545D+00
   zy        -0.106470D+01     -0.157772D+00     -0.175545D+00
   zz         0.400037D+02      0.592794D+01      0.659572D+01

 ----------------------------------------------------------------------
 1\1\GINC-LOCALHOST\Freq\RB3LYP\Aug-CC-pVDZ\C3H6O1\ROOT\22-Jul-2018\0\\
 # B3LYP/aug-cc-pVDZ freq=ROA\\Geometry has been optimized at B3LYP/aug
 -cc-pVDZ\\0,1\C,-1.044737,0.619994,-0.06138\C,0.155011,-0.03224,0.4870
 22\H,-1.876748,0.881393,0.597813\H,-0.960189,1.215021,-0.975198\H,0.15
 524,-0.248797,1.561236\O,-0.831339,-0.794174,-0.238879\C,1.513556,0.09
 8031,-0.150003\H,2.084582,0.906467,0.330457\H,2.084031,-0.83472,-0.035
 831\H,1.420814,0.319316,-1.221272\\Version=ES64L-G16RevA.03\State=1-A\
 HF=-193.1340993\RMSD=4.015e-09\RMSF=3.135e-05\ZeroPoint=0.0847573\Ther
 mal=0.0892069\Dipole=0.3485435,0.6660941,0.2667439\DipoleDeriv=0.15918
 17,0.0084755,-0.069315,-0.0453931,0.3626339,-0.0117419,-0.0740151,0.02
 13391,0.2666908,0.5192015,0.0641687,0.0086041,0.1339588,0.2582683,0.04
 25705,0.0068747,0.0064236,0.3380138,-0.0696743,0.094882,0.079788,0.039
 4968,0.0266425,0.0050579,0.0866687,-0.0272131,-0.0085495,0.0423518,0.0
 124671,0.0494284,0.0298571,-0.020809,0.058468,0.0093755,0.1151045,-0.0
 587204,-0.036338,-0.0098384,0.0120046,0.0029038,0.060625,0.0587732,-0.
 0166486,0.0157052,-0.1535738,-0.5390309,-0.1452292,-0.0489356,-0.18847
 1,-0.7572069,-0.1689238,-0.0769173,-0.1600501,-0.4112556,-0.0504292,-0
 .0418554,0.0433648,0.0127379,0.1237676,0.0292059,0.0656613,0.0331072,0
 .0375996,-0.0227946,-0.053754,-0.022901,-0.0997028,-0.0371722,-0.06876
 9,-0.0385507,-0.0777589,0.0254045,-0.0356914,0.0594752,-0.0028218,0.11
 23852,-0.0766016,0.016338,0.0172735,0.0305932,0.0684608,0.0332232,0.01
 12088,-0.0492165,0.0022274,0.0598525,0.0390213,0.020278,0.0427493,-0.1
 040703\Polar=0.,0.,0.,0.,0.,0.\Quadrupole=0.4814558,-1.0666967,0.58524
 09,-1.7576956,-0.2824456,-0.859513\PG=C01 [X(C3H6O1)]\NImag=0\\0.52300
 562,-0.16128068,0.43159451,-0.10768082,-0.13849031,0.55125763,-0.20910
 855,0.12705112,-0.06230408,0.59596804,0.07741729,-0.05029557,0.0512635
 7,-0.03993008,0.27122267,-0.07158911,0.07736678,-0.08665603,0.03262432
 ,-0.08996049,0.62051370,-0.21053600,0.04613267,0.13379165,-0.01272212,
 0.00230998,0.01817702,0.21708671,0.03909474,-0.05263916,-0.02777115,-0
 .00140168,-0.00711953,0.00189761,-0.05585578,0.06696523,0.13342780,-0.
 02717860,-0.15688922,-0.01335556,0.00178170,0.01161240,-0.14173195,0.0
 3490847,0.15663787,-0.05175775,-0.00812998,0.02796733,0.00430867,0.013
 90633,-0.02309389,0.00049639,-0.01155115,0.01810323,0.04769342,-0.0115
 6527,-0.11146583,0.11969242,-0.00015339,-0.00429644,-0.00526943,0.0007
 3680,0.00686199,-0.00525950,0.00554351,0.13389711,0.02621249,0.1253762
 8,-0.25364378,0.00491415,0.00546851,-0.01128939,-0.00150938,0.00856121
 ,-0.01065290,-0.02599403,-0.13433758,0.25813511,-0.00251607,0.00149991
 ,-0.01910249,-0.04896308,-0.00184465,0.01206134,0.00088018,0.00084311,
 0.00034319,-0.00162563,-0.00099219,-0.00075061,0.06076782,-0.00415931,
 -0.00665531,0.02298396,0.00285429,-0.05593847,0.06455701,-0.00080779,0
 .00039534,-0.00123005,0.00313180,0.00124188,0.00162986,0.00358417,0.05
 285312,-0.00015082,-0.00282109,-0.00278864,0.01100992,0.06045527,-0.30
 547674,-0.00032258,-0.00014616,0.00007465,0.00045379,-0.00022612,0.000
 90265,-0.00138731,-0.05968793,0.32805389,-0.03051120,-0.00130502,0.016
 41485,-0.11107610,-0.04575580,-0.04017319,0.00640956,0.02976928,0.0048
 2061,-0.00038106,0.00557814,-0.00351824,-0.00668536,-0.00546235,-0.011
 29597,0.16595098,0.04151932,-0.21232220,-0.00975574,-0.08682707,-0.080
 60456,-0.05761595,0.00414666,-0.01613021,-0.00590790,-0.00143377,-0.02
 624885,-0.00555353,0.00260584,0.00521112,-0.00139082,0.04715943,0.3300
 8910,0.02580687,-0.03195519,-0.05205203,-0.05262542,-0.03599995,-0.102
 32679,-0.00762319,-0.01702622,-0.00068949,0.00242198,0.02505193,0.0150
 7259,-0.02017320,-0.03040139,-0.01236525,0.05212714,0.08002455,0.14038
 693,-0.01785466,-0.00416148,0.00523188,-0.18776666,-0.00559166,0.06127
 797,-0.00047135,-0.00071737,-0.00046457,0.00148238,0.00023880,0.001058
 17,0.00174042,0.00177944,-0.00125334,-0.02229353,-0.00498135,-0.000934
 81,0.49968603,0.02195750,-0.00026430,-0.01673363,0.00137257,-0.0719795
 3,0.00852236,0.00366940,0.00146696,0.00295419,-0.00127521,0.00015804,-
 0.00097737,-0.00564701,0.00176379,0.00379032,-0.03330653,-0.00220937,0
 .00876442,-0.00809058,0.55097899,-0.00494265,-0.00230085,0.00192742,0.
 06766404,0.00790510,-0.11783473,-0.00106924,0.00012629,-0.00073816,-0.
 00107601,0.00088836,0.00063749,0.02804251,0.00250141,-0.00910991,-0.02
 014585,-0.00240452,0.00845974,0.03157756,-0.00037596,0.56251525,0.0011
 5506,-0.00071861,-0.00129016,-0.01224612,-0.02137756,-0.01654678,-0.00
 001490,0.00016982,0.00009467,-0.00031614,0.00025751,-0.00008674,0.0007
 9890,0.00039837,0.00082780,-0.00732066,-0.00045757,0.00346780,-0.11378
 987,-0.09922850,-0.05757094,0.12454195,-0.00083110,0.00019121,0.000184
 90,0.00014954,-0.00247526,-0.00131440,-0.00016408,0.00009640,-0.000097
 40,-0.00005992,0.00004529,0.00001498,-0.00017036,0.00013176,0.00039624
 ,0.00076658,0.00143633,0.00080990,-0.10019343,-0.18680878,-0.08523598,
 0.11022128,0.20107501,-0.00080946,-0.00022273,0.00023319,0.00572599,0.
 01086751,0.00629023,-0.00000177,-0.00008260,-0.00009745,0.00005419,-0.
 00024032,0.00001932,-0.00095044,-0.00028185,-0.00011055,0.00340372,0.0
 0111042,0.00050709,-0.05871059,-0.08565935,-0.09677067,0.06392271,0.09
 416476,0.10017797,-0.00342240,0.00071444,0.00528341,-0.01937231,0.0268
 9360,-0.00503866,-0.00125501,-0.00054053,-0.00107786,0.00041562,0.0000
 2486,0.00017208,0.00082287,-0.00063940,0.00001628,0.00317102,-0.001681
 42,-0.00084341,-0.11227329,0.11456985,-0.01454673,0.00901911,-0.014433
 08,0.00245349,0.12474537,-0.00222734,0.00077018,-0.00044180,-0.0028373
 6,0.00354145,-0.00061503,-0.00021952,0.00014876,-0.00004688,-0.0001814
 9,-0.00005326,-0.00009349,0.00054731,0.00018032,-0.00047750,0.00194732
 ,0.00132892,0.00050634,0.11592400,-0.23786030,0.02544600,0.01179107,-0
 .01904125,0.00328705,-0.12659332,0.25570902,0.00084092,0.00034848,-0.0
 0172855,0.00856168,-0.01391478,0.00163584,0.00039732,-0.00017713,0.000
 53777,0.00035876,-0.00016171,0.00025444,-0.00062425,-0.00017320,0.0003
 4946,-0.00116430,0.00124872,0.00056494,-0.01448134,0.02604973,-0.04916
 584,0.00776335,-0.01194484,0.00078134,0.01374767,-0.02756157,0.0487010
 2,0.00154596,0.00019762,0.00168843,0.00097823,-0.00602745,0.03230099,0
 .00012654,0.00018956,-0.00015956,-0.00031590,0.00033124,-0.00049790,-0
 .00522005,-0.00067922,0.00210221,0.00273634,-0.00005008,-0.00162376,-0
 .04845947,0.00597852,-0.02793269,-0.00182733,0.00471458,-0.01508784,-0
 .00185097,0.00184934,-0.01539981,0.05228666,0.00007484,0.00108646,-0.0
 0093222,-0.00027793,-0.00205477,0.00243153,0.00005167,-0.00004579,0.00
 007596,0.00004988,-0.00013996,-0.00008886,-0.00042612,0.00081644,0.000
 10778,0.00060893,-0.00055029,0.00022562,0.00579364,-0.05524551,0.05345
 017,-0.00105580,0.00534929,-0.02294289,0.00168500,-0.00472384,0.026286
 31,-0.00650411,0.05550797,-0.00111523,-0.00012278,0.00034002,-0.002215
 03,0.00213355,-0.01646847,-0.00010789,-0.00029032,0.00020453,0.0008046
 5,-0.00013803,0.00056447,0.00254126,0.00010217,0.00047044,-0.00046877,
 0.00024478,0.00244227,-0.02330092,0.05366529,-0.29992059,-0.00058172,0
 .00302184,-0.01103047,-0.00016627,-0.00000311,-0.00193043,0.02460992,-
 0.05861340,0.32532824\\-0.00006192,0.00003225,0.00000161,0.00009288,-0
 .00007595,0.00003963,0.00000453,-0.00000719,0.00000048,0.00002277,-0.0
 0002284,-0.00001665,-0.00003772,0.00001612,0.00001847,-0.00000396,0.00
 003065,-0.00002292,-0.00002561,0.00000193,0.00001365,0.00001834,-0.000
 01863,-0.00002529,-0.00000401,0.00003623,-0.00001223,-0.00000529,0.000
 00742,0.00000323\\\@


 EDUCATION DOESN'T COST 
           ... IT PAYS!

 -- POSTMARK, UNIV. OF MISSISSIPPI, DEC 78
 Job cpu time:       0 days  0 hours 34 minutes  2.7 seconds.
 Elapsed time:       0 days  0 hours  0 minutes 58.2 seconds.
 File lengths (MBytes):  RWF=    151 Int=      0 D2E=      0 Chk=      3 Scr=      1
 Normal termination of Gaussian 16 at Sun Jul 22 19:06:52 2018.
