b3lyp/6-31g(d) opted for neutral state                                  
SP        RB3LYP                                                      6-31G(d)            
Number of atoms                            I               10
Info1-9                                    I   N=           9
          20          20           0           0           0         110
           1          18        -502
Full Title                                 C   N=           4
b3lyp/6-31g(d) opted for neutral state          
Route                                      C   N=           3
# b3lyp/6-31g(d) pop=nboread        
Charge                                     I                0
Multiplicity                               I                1
Number of electrons                        I               30
Number of alpha electrons                  I               15
Number of beta electrons                   I               15
Number of basis functions                  I               72
Number of independent functions            I               72
Number of point charges in /Mol/           I                0
Number of translation vectors              I                0
Atomic numbers                             I   N=          10
           6           1           1           6           1           6
           1           6           1           1
Nuclear charges                            R   N=          10
  6.00000000E+00  1.00000000E+00  1.00000000E+00  6.00000000E+00  1.00000000E+00
  6.00000000E+00  1.00000000E+00  6.00000000E+00  1.00000000E+00  1.00000000E+00
Current cartesian coordinates              R   N=          30
  1.13743014E+00  3.30971766E+00  0.00000000E+00  2.88058610E+00  4.39200612E+00
  0.00000000E+00 -6.14778421E-01  4.38516758E+00  0.00000000E+00  1.13743014E+00
  7.76425669E-01  0.00000000E+00  2.93210979E+00 -2.36491855E-01  0.00000000E+00
 -1.13743014E+00 -7.76425669E-01  0.00000000E+00 -2.93210979E+00  2.36491855E-01
  0.00000000E+00 -1.13743014E+00 -3.30971766E+00  0.00000000E+00 -2.88058610E+00
 -4.39200612E+00  0.00000000E+00  6.14778421E-01 -4.38516758E+00  0.00000000E+00
Number of symbols in /Mol/                 I                0
Force Field                                I                0
Atom Types                                 C   N=          10
                                                            
                                                            
Int Atom Types                             I   N=          10
           0           0           0           0           0           0
           0           0           0           0
MM charges                                 R   N=          10
  0.00000000E+00  0.00000000E+00  0.00000000E+00  0.00000000E+00  0.00000000E+00
  0.00000000E+00  0.00000000E+00  0.00000000E+00  0.00000000E+00  0.00000000E+00
Integer atomic weights                     I   N=          10
          12           1           1          12           1          12
           1          12           1           1
Real atomic weights                        R   N=          10
  1.20000000E+01  1.00782504E+00  1.00782504E+00  1.20000000E+01  1.00782504E+00
  1.20000000E+01  1.00782504E+00  1.20000000E+01  1.00782504E+00  1.00782504E+00
Atom fragment info                         I   N=          10
           0           0           0           0           0           0
           0           0           0           0
Atom residue num                           I   N=          10
           0           0           0           0           0           0
           0           0           0           0
Nuclear spins                              I   N=          10
           0           1           1           0           1           0
           1           0           1           1
Nuclear ZEff                               R   N=          10
 -3.60000000E+00 -1.00000000E+00 -1.00000000E+00 -3.60000000E+00 -1.00000000E+00
 -3.60000000E+00 -1.00000000E+00 -3.60000000E+00 -1.00000000E+00 -1.00000000E+00
Nuclear ZNuc                               R   N=          10
  6.00000000E+00  1.00000000E+00  1.00000000E+00  6.00000000E+00  1.00000000E+00
  6.00000000E+00  1.00000000E+00  6.00000000E+00  1.00000000E+00  1.00000000E+00
Nuclear QMom                               R   N=          10
  0.00000000E+00  0.00000000E+00  0.00000000E+00  0.00000000E+00  0.00000000E+00
  0.00000000E+00  0.00000000E+00  0.00000000E+00  0.00000000E+00  0.00000000E+00
Nuclear GFac                               R   N=          10
  0.00000000E+00  2.79284600E+00  2.79284600E+00  0.00000000E+00  2.79284600E+00
  0.00000000E+00  2.79284600E+00  0.00000000E+00  2.79284600E+00  2.79284600E+00
MicOpt                                     I   N=          10
          -1          -1          -1          -1          -1          -1
          -1          -1          -1          -1
Number of residues                         I                0
Number of secondary structures             I                0
SymInf integers                            I   N=          26
           2           4           1           1           1          -1
          -1           1           1           1          -1          -1
          -1          -1           0           0           0           0
           0           0           0           0           0           0
           0           0
RotTr to input orientation                 R   N=          12
  1.00000000E+00  0.00000000E+00  0.00000000E+00  0.00000000E+00  1.00000000E+00
  0.00000000E+00  0.00000000E+00  0.00000000E+00  1.00000000E+00 -1.18423789E-16
  0.00000000E+00  0.00000000E+00
Number of contracted shells                I               28
Number of primitive shells                 I               68
Pure/Cartesian d shells                    I                1
Pure/Cartesian f shells                    I                0
Highest angular momentum                   I                2
Largest degree of contraction              I                6
Shell types                                I   N=          28
           0          -1          -1           2           0           0
           0           0           0          -1          -1           2
           0           0           0          -1          -1           2
           0           0           0          -1          -1           2
           0           0           0           0
Number of primitives per shell             I   N=          28
           6           3           1           1           3           1
           3           1           6           3           1           1
           3           1           6           3           1           1
           3           1           6           3           1           1
           3           1           3           1
Shell to atom map                          I   N=          28
           1           1           1           1           2           2
           3           3           4           4           4           4
           5           5           6           6           6           6
           7           7           8           8           8           8
           9           9          10          10
Primitive exponents                        R   N=          68
  3.04752488E+03  4.57369518E+02  1.03948685E+02  2.92101553E+01  9.28666296E+00
  3.16392696E+00  7.86827235E+00  1.88128854E+00  5.44249258E-01  1.68714478E-01
  8.00000000E-01  1.87311370E+01  2.82539436E+00  6.40121692E-01  1.61277759E-01
  1.87311370E+01  2.82539436E+00  6.40121692E-01  1.61277759E-01  3.04752488E+03
  4.57369518E+02  1.03948685E+02  2.92101553E+01  9.28666296E+00  3.16392696E+00
  7.86827235E+00  1.88128854E+00  5.44249258E-01  1.68714478E-01  8.00000000E-01
  1.87311370E+01  2.82539436E+00  6.40121692E-01  1.61277759E-01  3.04752488E+03
  4.57369518E+02  1.03948685E+02  2.92101553E+01  9.28666296E+00  3.16392696E+00
  7.86827235E+00  1.88128854E+00  5.44249258E-01  1.68714478E-01  8.00000000E-01
  1.87311370E+01  2.82539436E+00  6.40121692E-01  1.61277759E-01  3.04752488E+03
  4.57369518E+02  1.03948685E+02  2.92101553E+01  9.28666296E+00  3.16392696E+00
  7.86827235E+00  1.88128854E+00  5.44249258E-01  1.68714478E-01  8.00000000E-01
  1.87311370E+01  2.82539436E+00  6.40121692E-01  1.61277759E-01  1.87311370E+01
  2.82539436E+00  6.40121692E-01  1.61277759E-01
Contraction coefficients                   R   N=          68
  1.83473713E-03  1.40373228E-02  6.88426223E-02  2.32184443E-01  4.67941348E-01
  3.62311985E-01 -1.19332420E-01 -1.60854152E-01  1.14345644E+00  1.00000000E+00
  1.00000000E+00  3.34946043E-02  2.34726953E-01  8.13757326E-01  1.00000000E+00
  3.34946043E-02  2.34726953E-01  8.13757326E-01  1.00000000E+00  1.83473713E-03
  1.40373228E-02  6.88426223E-02  2.32184443E-01  4.67941348E-01  3.62311985E-01
 -1.19332420E-01 -1.60854152E-01  1.14345644E+00  1.00000000E+00  1.00000000E+00
  3.34946043E-02  2.34726953E-01  8.13757326E-01  1.00000000E+00  1.83473713E-03
  1.40373228E-02  6.88426223E-02  2.32184443E-01  4.67941348E-01  3.62311985E-01
 -1.19332420E-01 -1.60854152E-01  1.14345644E+00  1.00000000E+00  1.00000000E+00
  3.34946043E-02  2.34726953E-01  8.13757326E-01  1.00000000E+00  1.83473713E-03
  1.40373228E-02  6.88426223E-02  2.32184443E-01  4.67941348E-01  3.62311985E-01
 -1.19332420E-01 -1.60854152E-01  1.14345644E+00  1.00000000E+00  1.00000000E+00
  3.34946043E-02  2.34726953E-01  8.13757326E-01  1.00000000E+00  3.34946043E-02
  2.34726953E-01  8.13757326E-01  1.00000000E+00
P(S=P) Contraction coefficients            R   N=          68
  0.00000000E+00  0.00000000E+00  0.00000000E+00  0.00000000E+00  0.00000000E+00
  0.00000000E+00  6.89990666E-02  3.16423961E-01  7.44308291E-01  1.00000000E+00
  0.00000000E+00  0.00000000E+00  0.00000000E+00  0.00000000E+00  0.00000000E+00
  0.00000000E+00  0.00000000E+00  0.00000000E+00  0.00000000E+00  0.00000000E+00
  0.00000000E+00  0.00000000E+00  0.00000000E+00  0.00000000E+00  0.00000000E+00
  6.89990666E-02  3.16423961E-01  7.44308291E-01  1.00000000E+00  0.00000000E+00
  0.00000000E+00  0.00000000E+00  0.00000000E+00  0.00000000E+00  0.00000000E+00
  0.00000000E+00  0.00000000E+00  0.00000000E+00  0.00000000E+00  0.00000000E+00
  6.89990666E-02  3.16423961E-01  7.44308291E-01  1.00000000E+00  0.00000000E+00
  0.00000000E+00  0.00000000E+00  0.00000000E+00  0.00000000E+00  0.00000000E+00
  0.00000000E+00  0.00000000E+00  0.00000000E+00  0.00000000E+00  0.00000000E+00
  6.89990666E-02  3.16423961E-01  7.44308291E-01  1.00000000E+00  0.00000000E+00
  0.00000000E+00  0.00000000E+00  0.00000000E+00  0.00000000E+00  0.00000000E+00
  0.00000000E+00  0.00000000E+00  0.00000000E+00
Coordinates of each shell                  R   N=          84
  1.13743014E+00  3.30971766E+00  0.00000000E+00  1.13743014E+00  3.30971766E+00
  0.00000000E+00  1.13743014E+00  3.30971766E+00  0.00000000E+00  1.13743014E+00
  3.30971766E+00  0.00000000E+00  2.88058610E+00  4.39200612E+00  0.00000000E+00
  2.88058610E+00  4.39200612E+00  0.00000000E+00 -6.14778421E-01  4.38516758E+00
  0.00000000E+00 -6.14778421E-01  4.38516758E+00  0.00000000E+00  1.13743014E+00
  7.76425669E-01  0.00000000E+00  1.13743014E+00  7.76425669E-01  0.00000000E+00
  1.13743014E+00  7.76425669E-01  0.00000000E+00  1.13743014E+00  7.76425669E-01
  0.00000000E+00  2.93210979E+00 -2.36491855E-01  0.00000000E+00  2.93210979E+00
 -2.36491855E-01  0.00000000E+00 -1.13743014E+00 -7.76425669E-01  0.00000000E+00
 -1.13743014E+00 -7.76425669E-01  0.00000000E+00 -1.13743014E+00 -7.76425669E-01
  0.00000000E+00 -1.13743014E+00 -7.76425669E-01  0.00000000E+00 -2.93210979E+00
  2.36491855E-01  0.00000000E+00 -2.93210979E+00  2.36491855E-01  0.00000000E+00
 -1.13743014E+00 -3.30971766E+00  0.00000000E+00 -1.13743014E+00 -3.30971766E+00
  0.00000000E+00 -1.13743014E+00 -3.30971766E+00  0.00000000E+00 -1.13743014E+00
 -3.30971766E+00  0.00000000E+00 -2.88058610E+00 -4.39200612E+00  0.00000000E+00
 -2.88058610E+00 -4.39200612E+00  0.00000000E+00  6.14778421E-01 -4.38516758E+00
  0.00000000E+00  6.14778421E-01 -4.38516758E+00  0.00000000E+00
Num ILSW                                   I              100
ILSW                                       I   N=         100
           0           1           0           0           2           0
           0           0           0           0         402          -1
           5           0           0           0           0           0
           0           0           1           0           0           0
           1           0           0           0           0           0
           0           0      100000           0          -1           0
           0           0           0           0           0           0
           0           0           0           1           0           0
           0 -2000000000           1           0           0           0
           0           0           4          52           0           0
           0           0           5           0           0           0
           0           0           0           0           0           1
           0           0           0           0           0           0
           0           0           0           0           0           0
           0           0           0           0           0           0
           0           0           0           0           0           0
           0           0           0           0
Num RLSW                                   I               52
RLSW                                       R   N=          52
  8.00000000E-01  7.20000000E-01  1.00000000E+00  8.10000000E-01  2.00000000E-01
  0.00000000E+00  0.00000000E+00  1.00000000E+00  0.00000000E+00  0.00000000E+00
  0.00000000E+00  0.00000000E+00  1.00000000E+00  0.00000000E+00  0.00000000E+00
  0.00000000E+00  0.00000000E+00  1.00000000E+00  0.00000000E+00  0.00000000E+00
  0.00000000E+00  0.00000000E+00  1.00000000E+00  0.00000000E+00  0.00000000E+00
  0.00000000E+00  0.00000000E+00  1.00000000E+00  0.00000000E+00  0.00000000E+00
  0.00000000E+00  0.00000000E+00  1.00000000E+00  0.00000000E+00  0.00000000E+00
  0.00000000E+00  0.00000000E+00  0.00000000E+00  1.00000000E+00  1.00000000E+00
  0.00000000E+00  1.00000000E+00  0.00000000E+00  0.00000000E+00  0.00000000E+00
  0.00000000E+00  0.00000000E+00  0.00000000E+00  0.00000000E+00  0.00000000E+00
  0.00000000E+00  0.00000000E+00
MxBond                                     I                3
NBond                                      I   N=          10
           3           1           1           3           1           3
           1           3           1           1
IBond                                      I   N=          30
           2           3           4           1           0           0
           1           0           0           1           5           6
           4           0           0           4           7           8
           6           0           0           6           9          10
           8           0           0           8           0           0
RBond                                      R   N=          30
  1.00000000E+00  1.00000000E+00  2.00000000E+00  1.00000000E+00  0.00000000E+00
  0.00000000E+00  1.00000000E+00  0.00000000E+00  0.00000000E+00  2.00000000E+00
  1.00000000E+00  1.00000000E+00  1.00000000E+00  0.00000000E+00  0.00000000E+00
  1.00000000E+00  1.00000000E+00  2.00000000E+00  1.00000000E+00  0.00000000E+00
  0.00000000E+00  2.00000000E+00  1.00000000E+00  1.00000000E+00  1.00000000E+00
  0.00000000E+00  0.00000000E+00  1.00000000E+00  0.00000000E+00  0.00000000E+00
Virial Ratio                               R      2.010285996732463E+00
SCF Energy                                 R     -1.559921395566240E+02
Total Energy                               R     -1.559921395566240E+02
RMS Density                                R      8.085542597590129E-09
Job Status                                 I                1
Nuclear derivative order                   I                0
External E-field                           R   N=          35
  0.00000000E+00  0.00000000E+00  0.00000000E+00  0.00000000E+00  0.00000000E+00
  0.00000000E+00  0.00000000E+00  0.00000000E+00  0.00000000E+00  0.00000000E+00
  0.00000000E+00  0.00000000E+00  0.00000000E+00  0.00000000E+00  0.00000000E+00
  0.00000000E+00  0.00000000E+00  0.00000000E+00  0.00000000E+00  0.00000000E+00
  0.00000000E+00  0.00000000E+00  0.00000000E+00  0.00000000E+00  0.00000000E+00
  0.00000000E+00  0.00000000E+00  0.00000000E+00  0.00000000E+00  0.00000000E+00
  0.00000000E+00  0.00000000E+00  0.00000000E+00  0.00000000E+00  0.00000000E+00
IOpCl                                      I                0
IROHF                                      I                0
Alpha Orbital Energies                     R   N=          72
 -1.01924522E+01 -1.01921068E+01 -1.01837916E+01 -1.01837914E+01 -8.01429360E-01
 -7.29639655E-01 -6.03093823E-01 -5.50363919E-01 -4.63941391E-01 -4.59149960E-01
 -3.91365560E-01 -3.84928496E-01 -3.44338427E-01 -3.19813318E-01 -2.29020476E-01
 -2.25011687E-02  8.54640120E-02  1.15535951E-01  1.25657038E-01  1.30737903E-01
  1.74874427E-01  1.92519250E-01  2.11942129E-01  3.25199362E-01  3.36745903E-01
  3.97279686E-01  4.71989172E-01  5.16723341E-01  5.30248246E-01  5.77918775E-01
  6.07888835E-01  6.26966382E-01  6.62552138E-01  6.71143382E-01  6.71416544E-01
  6.93312708E-01  8.43730440E-01  8.57834733E-01  8.63842956E-01  8.88464853E-01
  9.38691663E-01  9.45071341E-01  9.62401426E-01  1.06601751E+00  1.11831447E+00
  1.13048437E+00  1.31991301E+00  1.34568318E+00  1.35379621E+00  1.42917526E+00
  1.54128599E+00  1.65833002E+00  1.76692645E+00  1.82342871E+00  1.87593088E+00
  1.94649384E+00  2.05197799E+00  2.09994178E+00  2.11489689E+00  2.16047661E+00
  2.31572495E+00  2.39849983E+00  2.40508997E+00  2.47966311E+00  2.59853282E+00
  2.73609000E+00  2.92602848E+00  2.98308112E+00  4.08647969E+00  4.12630139E+00
  4.21290597E+00  4.44389896E+00
Alpha MO coefficients                      R   N=        5184
  3.34281492E-02  1.19549126E-03  2.08318637E-05  2.70484455E-04  0.00000000E+00
  3.55296304E-03 -4.23724342E-04 -1.61047555E-03  0.00000000E+00 -4.39767076E-04
 -4.95577959E-04 -4.50805777E-04  3.73014221E-05  0.00000000E+00  0.00000000E+00
 -5.51793248E-05  2.56736089E-04 -1.10277365E-04 -1.81500571E-04  7.01081311E-01
  3.46831360E-02  6.92405410E-05  1.09815902E-04  0.00000000E+00 -7.63455201E-03
  2.70850779E-04 -1.88419013E-03  0.00000000E+00 -6.93146804E-03 -6.58717501E-03
 -6.87762528E-03 -7.24403058E-05  0.00000000E+00  0.00000000E+00 -3.43574592E-04
  9.70282229E-04  7.01081311E-01  3.46831360E-02 -6.92405410E-05 -1.09815902E-04
  0.00000000E+00 -7.63455201E-03 -2.70850779E-04  1.88419013E-03  0.00000000E+00
 -6.93146804E-03 -6.58717501E-03 -6.87762528E-03 -7.24403058E-05  0.00000000E+00
  0.00000000E+00 -3.43574592E-04  9.70282229E-04  3.34281492E-02  1.19549126E-03
 -2.08318637E-05 -2.70484455E-04  0.00000000E+00  3.55296304E-03  4.23724342E-04
  1.61047555E-03  0.00000000E+00 -4.39767076E-04 -4.95577959E-04 -4.50805777E-04
  3.73014221E-05  0.00000000E+00  0.00000000E+00 -5.51793248E-05  2.56736089E-04
 -1.10277365E-04 -1.81500571E-04  3.51199240E-02  1.43785703E-03 -1.09519293E-05
  2.52680332E-04  0.00000000E+00  3.09552447E-03 -6.94046365E-04 -1.31058547E-03
  0.00000000E+00 -5.03754661E-04 -6.23748721E-04 -3.93185507E-04  4.36170590E-05
  0.00000000E+00  0.00000000E+00 -1.43912144E-05  1.49527448E-04 -1.06839162E-04
 -2.64050982E-04  7.01219057E-01  3.51018432E-02 -3.30636989E-04 -9.44566200E-05
  0.00000000E+00 -1.41249363E-02  2.52786898E-03  7.03152389E-04  0.00000000E+00
 -6.25939286E-03 -6.19213131E-03 -6.66787955E-03  1.57987535E-04  0.00000000E+00
  0.00000000E+00 -1.66675080E-04  1.35580137E-03 -7.01219057E-01 -3.51018432E-02
 -3.30636989E-04 -9.44566200E-05  0.00000000E+00  1.41249363E-02  2.52786898E-03
  7.03152389E-04  0.00000000E+00  6.25939286E-03  6.19213131E-03  6.66787955E-03
 -1.57987535E-04  0.00000000E+00  0.00000000E+00  1.66675080E-04 -1.35580137E-03
 -3.51199240E-02 -1.43785703E-03 -1.09519293E-05  2.52680332E-04  0.00000000E+00
 -3.09552447E-03 -6.94046365E-04 -1.31058547E-03  0.00000000E+00  5.03754661E-04
  6.23748721E-04  3.93185507E-04 -4.36170590E-05  0.00000000E+00  0.00000000E+00
  1.43912144E-05 -1.49527448E-04  1.06839162E-04  2.64050982E-04  7.01150844E-01
  3.47814492E-02 -8.42359427E-06 -5.42420437E-05  0.00000000E+00 -8.87746606E-03
 -6.81754366E-05  4.82692604E-04  0.00000000E+00 -6.68233208E-03 -6.48167196E-03
 -6.91384087E-03  2.00537385E-05  0.00000000E+00  0.00000000E+00 -2.46936525E-04
  1.59489611E-03 -2.50798256E-04  1.57358088E-03 -3.37739881E-02 -2.08975871E-03
 -7.85894328E-06 -2.63526897E-04  0.00000000E+00  3.24196229E-03  2.10179162E-04
  9.68710932E-04  0.00000000E+00  2.03353060E-04  1.12813783E-04  2.19976482E-04
  2.75976570E-05  0.00000000E+00  0.00000000E+00 -7.12596505E-05 -2.56131026E-04
 -3.37739881E-02 -2.08975871E-03  7.85894328E-06  2.63526897E-04  0.00000000E+00
  3.24196229E-03 -2.10179162E-04 -9.68710932E-04  0.00000000E+00  2.03353060E-04
  1.12813783E-04  2.19976482E-04  2.75976570E-05  0.00000000E+00  0.00000000E+00
 -7.12596505E-05 -2.56131026E-04  7.01150844E-01  3.47814492E-02  8.42359427E-06
  5.42420437E-05  0.00000000E+00 -8.87746606E-03  6.81754366E-05 -4.82692604E-04
  0.00000000E+00 -6.68233208E-03 -6.48167196E-03 -6.91384087E-03  2.00537385E-05
  0.00000000E+00  0.00000000E+00 -2.46936525E-04  1.59489611E-03 -2.50798256E-04
  1.57358088E-03  7.01084891E-01  3.48685469E-02 -1.09865451E-05 -3.40437607E-05
  0.00000000E+00 -1.00337445E-02  2.07316770E-04  1.16548347E-03  0.00000000E+00
 -6.67184811E-03 -6.50012265E-03 -6.88195367E-03 -1.28010799E-05  0.00000000E+00
  0.00000000E+00 -2.37010969E-04  1.41339342E-03 -1.88060839E-04  1.53670672E-03
 -3.54560421E-02 -2.08224040E-03  3.98629402E-05 -3.47046954E-04  0.00000000E+00
  4.31246445E-03 -1.03057205E-04  1.84284110E-03  0.00000000E+00  9.79773326E-05
  7.45196821E-05  2.63179192E-04 -5.48778917E-05  0.00000000E+00  0.00000000E+00
 -7.29055410E-06 -1.41546866E-05  3.54560421E-02  2.08224040E-03  3.98629402E-05
 -3.47046954E-04  0.00000000E+00 -4.31246445E-03 -1.03057205E-04  1.84284110E-03
  0.00000000E+00 -9.79773326E-05 -7.45196821E-05 -2.63179192E-04  5.48778917E-05
  0.00000000E+00  0.00000000E+00  7.29055410E-06  1.41546866E-05 -7.01084891E-01
 -3.48685469E-02 -1.09865451E-05 -3.40437607E-05  0.00000000E+00  1.00337445E-02
  2.07316770E-04  1.16548347E-03  0.00000000E+00  6.67184811E-03  6.50012265E-03
  6.88195367E-03  1.28010799E-05  0.00000000E+00  0.00000000E+00  2.37010969E-04
 -1.41339342E-03  1.88060839E-04 -1.53670672E-03 -9.00527428E-02  1.72066388E-01
 -8.52887869E-03 -7.47798934E-02  0.00000000E+00  1.43265393E-01 -1.83401621E-03
 -1.49204268E-02  0.00000000E+00 -8.75220966E-04  6.97355758E-03 -9.70950697E-03
  8.40580984E-04  0.00000000E+00  0.00000000E+00  3.93710701E-02  5.59243109E-03
  4.41545895E-02  8.01045387E-03 -1.36397675E-01  2.65978701E-01 -4.70627793E-02
  1.10587411E-02  0.00000000E+00  1.65848424E-01  5.15006167E-03 -2.80635842E-02
  0.00000000E+00  2.78373160E-03  4.16579188E-03 -1.42845126E-02  3.21302609E-03
  0.00000000E+00  0.00000000E+00  6.66870173E-02  4.10794976E-03 -1.36397675E-01
  2.65978701E-01  4.70627793E-02 -1.10587411E-02  0.00000000E+00  1.65848424E-01
 -5.15006167E-03  2.80635842E-02  0.00000000E+00  2.78373160E-03  4.16579188E-03
 -1.42845126E-02  3.21302609E-03  0.00000000E+00  0.00000000E+00  6.66870173E-02
  4.10794976E-03 -9.00527428E-02  1.72066388E-01  8.52887869E-03  7.47798934E-02
  0.00000000E+00  1.43265393E-01  1.83401621E-03  1.49204268E-02  0.00000000E+00
 -8.75220966E-04  6.97355758E-03 -9.70950697E-03  8.40580984E-04  0.00000000E+00
  0.00000000E+00  3.93710701E-02  5.59243109E-03  4.41545895E-02  8.01045387E-03
 -1.31137576E-01  2.53634051E-01  6.41538388E-03 -6.37000093E-02  0.00000000E+00
  1.99151301E-01 -1.02954114E-02 -3.89004289E-05  0.00000000E+00  1.34321777E-03
  5.21188159E-03 -1.35588806E-02 -2.79784529E-04  0.00000000E+00  0.00000000E+00
  7.76330258E-02  2.26968737E-02  7.25786088E-02  1.09397012E-02 -8.57079860E-02
  1.71808238E-01  3.63715902E-02  1.32527313E-01  0.00000000E+00  1.03996864E-01
  3.04919141E-02  3.01355461E-02  0.00000000E+00 -6.20282721E-03  3.89521969E-03
 -7.73596630E-03 -6.63371191E-03  0.00000000E+00  0.00000000E+00  4.41425157E-02
  3.59022385E-03  8.57079860E-02 -1.71808238E-01  3.63715902E-02  1.32527313E-01
  0.00000000E+00 -1.03996864E-01  3.04919141E-02  3.01355461E-02  0.00000000E+00
  6.20282721E-03 -3.89521969E-03  7.73596630E-03  6.63371191E-03  0.00000000E+00
  0.00000000E+00 -4.41425157E-02 -3.59022385E-03  1.31137576E-01 -2.53634051E-01
  6.41538388E-03 -6.37000093E-02  0.00000000E+00 -1.99151301E-01 -1.02954114E-02
 -3.89004289E-05  0.00000000E+00 -1.34321777E-03 -5.21188159E-03  1.35588806E-02
  2.79784529E-04  0.00000000E+00  0.00000000E+00 -7.76330258E-02 -2.26968737E-02
 -7.25786088E-02 -1.09397012E-02 -1.11824140E-01  2.23399969E-01  2.70206565E-02
  9.28452551E-02  0.00000000E+00  2.07882019E-01  1.41370678E-02  4.07102121E-02
  0.00000000E+00  8.98420064E-03 -5.19524141E-03 -1.02993260E-02 -8.78588907E-04
  0.00000000E+00  0.00000000E+00  1.21685251E-01  4.82781548E-02  1.02055747E-01
  4.19039542E-02  7.26446262E-02 -1.49177476E-01  7.74475335E-02  1.57828860E-01
  0.00000000E+00 -1.30152638E-01  7.85987680E-03  4.76207993E-02  0.00000000E+00
 -9.81710849E-03  9.74761696E-03  6.40807594E-03 -1.89423661E-03  0.00000000E+00
  0.00000000E+00 -6.20617382E-02 -1.70086576E-02  7.26446262E-02 -1.49177476E-01
 -7.74475335E-02 -1.57828860E-01  0.00000000E+00 -1.30152638E-01 -7.85987680E-03
 -4.76207993E-02  0.00000000E+00 -9.81710849E-03  9.74761696E-03  6.40807594E-03
 -1.89423661E-03  0.00000000E+00  0.00000000E+00 -6.20617382E-02 -1.70086576E-02
 -1.11824140E-01  2.23399969E-01 -2.70206565E-02 -9.28452551E-02  0.00000000E+00
  2.07882019E-01 -1.41370678E-02 -4.07102121E-02  0.00000000E+00  8.98420064E-03
 -5.19524141E-03 -1.02993260E-02 -8.78588907E-04  0.00000000E+00  0.00000000E+00
  1.21685251E-01  4.82781548E-02  1.02055747E-01  4.19039542E-02  4.77588133E-02
 -9.64577614E-02  8.93515718E-02 -1.22705128E-01  0.00000000E+00 -9.04911335E-02
  3.22572465E-02 -4.25750472E-02  0.00000000E+00 -8.72608829E-03  6.00276194E-03
  4.33822362E-03 -1.77445495E-03  0.00000000E+00  0.00000000E+00 -3.91869339E-02
 -2.05717629E-02 -1.11893895E-01 -6.32370115E-02 -8.56525671E-02  1.75638357E-01
  1.77247615E-01 -6.94851758E-02  0.00000000E+00  1.71613270E-01  5.12794947E-02
 -3.89077271E-02  0.00000000E+00  1.66006873E-04 -1.93332310E-03 -7.22402954E-03
 -8.26958403E-03  0.00000000E+00  0.00000000E+00  1.67329848E-01  9.24043451E-02
  8.56525671E-02 -1.75638357E-01  1.77247615E-01 -6.94851758E-02  0.00000000E+00
 -1.71613270E-01  5.12794947E-02 -3.89077271E-02  0.00000000E+00 -1.66006873E-04
  1.93332310E-03  7.22402954E-03  8.26958403E-03  0.00000000E+00  0.00000000E+00
 -1.67329848E-01 -9.24043451E-02 -4.77588133E-02  9.64577614E-02  8.93515718E-02
 -1.22705128E-01  0.00000000E+00  9.04911335E-02  3.22572465E-02 -4.25750472E-02
  0.00000000E+00  8.72608829E-03 -6.00276194E-03 -4.33822362E-03  1.77445495E-03
  0.00000000E+00  0.00000000E+00  3.91869339E-02  2.05717629E-02  1.11893895E-01
  6.32370115E-02 -1.81459020E-02  3.87308163E-02  1.39742350E-01  2.63462542E-01
  0.00000000E+00  5.30179129E-02  6.64179536E-02  9.55496009E-02  0.00000000E+00
  1.33428439E-02 -6.58639901E-03 -1.20040061E-03  3.26360635E-03  0.00000000E+00
  0.00000000E+00  1.66255167E-01  1.12474408E-01  3.20118761E-02  2.54616861E-02
  3.81486193E-02 -8.45933795E-02  9.83453998E-02 -2.03447350E-01  0.00000000E+00
 -4.23445290E-02  1.73250893E-02 -6.49145547E-02  0.00000000E+00  5.37230508E-03
  5.53601359E-03  1.87553737E-03  5.96523354E-03  0.00000000E+00  0.00000000E+00
  6.51761583E-02  5.92663690E-02 -3.81486193E-02  8.45933795E-02  9.83453998E-02
 -2.03447350E-01  0.00000000E+00  4.23445290E-02  1.73250893E-02 -6.49145547E-02
  0.00000000E+00 -5.37230508E-03 -5.53601359E-03 -1.87553737E-03 -5.96523354E-03
  0.00000000E+00  0.00000000E+00 -6.51761583E-02 -5.92663690E-02  1.81459020E-02
 -3.87308163E-02  1.39742350E-01  2.63462542E-01  0.00000000E+00 -5.30179129E-02
  6.64179536E-02  9.55496009E-02  0.00000000E+00 -1.33428439E-02  6.58639901E-03
  1.20040061E-03 -3.26360635E-03  0.00000000E+00  0.00000000E+00 -1.66255167E-01
 -1.12474408E-01 -3.20118761E-02 -2.54616861E-02  7.45760428E-03 -1.38098868E-02
  2.44606985E-01 -9.92174420E-02  0.00000000E+00 -4.37161910E-02  9.77440567E-02
 -2.71216826E-02  0.00000000E+00 -4.96507523E-03  1.55934289E-03  8.80213519E-04
  4.96977457E-03  0.00000000E+00  0.00000000E+00  7.78752448E-02  5.53902780E-02
 -1.53267148E-01 -1.05727107E-01 -9.21780319E-03  1.53280825E-02  2.37167504E-01
  8.60788898E-02  0.00000000E+00  3.25625127E-02  7.62532414E-02  4.10939841E-02
  0.00000000E+00  3.39416862E-03 -9.19653585E-04 -1.11672225E-03 -2.08967556E-03
  0.00000000E+00  0.00000000E+00  9.79551878E-02  7.08999881E-02 -9.21780319E-03
  1.53280825E-02 -2.37167504E-01 -8.60788898E-02  0.00000000E+00  3.25625127E-02
 -7.62532414E-02 -4.10939841E-02  0.00000000E+00  3.39416862E-03 -9.19653585E-04
 -1.11672225E-03 -2.08967556E-03  0.00000000E+00  0.00000000E+00  9.79551878E-02
  7.08999881E-02  7.45760428E-03 -1.38098868E-02 -2.44606985E-01  9.92174420E-02