b3lyp/6-31g(d) opted for neutral state                                  
SP        UB3LYP                                                      6-31G(d)            
Number of atoms                            I               10
Info1-9                                    I   N=           9
          18          17           0           0           0         110
           1          18        -502
Full Title                                 C   N=           4
b3lyp/6-31g(d) opted for neutral state          
Route                                      C   N=           2
# b3lyp/6-31g(d)        
Charge                                     I                1
Multiplicity                               I                2
Number of electrons                        I               29
Number of alpha electrons                  I               15
Number of beta electrons                   I               14
Number of basis functions                  I               72
Number of independent functions            I               72
Number of point charges in /Mol/           I                0
Number of translation vectors              I                0
Atomic numbers                             I   N=          10
           6           1           1           6           1           6
           1           6           1           1
Nuclear charges                            R   N=          10
  6.00000000E+00  1.00000000E+00  1.00000000E+00  6.00000000E+00  1.00000000E+00
  6.00000000E+00  1.00000000E+00  6.00000000E+00  1.00000000E+00  1.00000000E+00
Current cartesian coordinates              R   N=          30
  1.13743014E+00  3.30971766E+00  0.00000000E+00  2.88058610E+00  4.39200612E+00
  0.00000000E+00 -6.14778421E-01  4.38516758E+00  0.00000000E+00  1.13743014E+00
  7.76425669E-01  0.00000000E+00  2.93210979E+00 -2.36491855E-01  0.00000000E+00
 -1.13743014E+00 -7.76425669E-01  0.00000000E+00 -2.93210979E+00  2.36491855E-01
  0.00000000E+00 -1.13743014E+00 -3.30971766E+00  0.00000000E+00 -2.88058610E+00
 -4.39200612E+00  0.00000000E+00  6.14778421E-01 -4.38516758E+00  0.00000000E+00
Number of symbols in /Mol/                 I                0
Force Field                                I                0
Atom Types                                 C   N=          10
                                                            
                                                            
Int Atom Types                             I   N=          10
           0           0           0           0           0           0
           0           0           0           0
MM charges                                 R   N=          10
  0.00000000E+00  0.00000000E+00  0.00000000E+00  0.00000000E+00  0.00000000E+00
  0.00000000E+00  0.00000000E+00  0.00000000E+00  0.00000000E+00  0.00000000E+00
Integer atomic weights                     I   N=          10
          12           1           1          12           1          12
           1          12           1           1
Real atomic weights                        R   N=          10
  1.20000000E+01  1.00782504E+00  1.00782504E+00  1.20000000E+01  1.00782504E+00
  1.20000000E+01  1.00782504E+00  1.20000000E+01  1.00782504E+00  1.00782504E+00
Atom fragment info                         I   N=          10
           0           0           0           0           0           0
           0           0           0           0
Atom residue num                           I   N=          10
           0           0           0           0           0           0
           0           0           0           0
Nuclear spins                              I   N=          10
           0           1           1           0           1           0
           1           0           1           1
Nuclear ZEff                               R   N=          10
 -3.60000000E+00 -1.00000000E+00 -1.00000000E+00 -3.60000000E+00 -1.00000000E+00
 -3.60000000E+00 -1.00000000E+00 -3.60000000E+00 -1.00000000E+00 -1.00000000E+00
Nuclear ZNuc                               R   N=          10
  6.00000000E+00  1.00000000E+00  1.00000000E+00  6.00000000E+00  1.00000000E+00
  6.00000000E+00  1.00000000E+00  6.00000000E+00  1.00000000E+00  1.00000000E+00
Nuclear QMom                               R   N=          10
  0.00000000E+00  0.00000000E+00  0.00000000E+00  0.00000000E+00  0.00000000E+00
  0.00000000E+00  0.00000000E+00  0.00000000E+00  0.00000000E+00  0.00000000E+00
Nuclear GFac                               R   N=          10
  0.00000000E+00  2.79284600E+00  2.79284600E+00  0.00000000E+00  2.79284600E+00
  0.00000000E+00  2.79284600E+00  0.00000000E+00  2.79284600E+00  2.79284600E+00
MicOpt                                     I   N=          10
          -1          -1          -1          -1          -1          -1
          -1          -1          -1          -1
Number of residues                         I                0
Number of secondary structures             I                0
SymInf integers                            I   N=          26
           2           4           1           1           1          -1
          -1           1           1           1          -1          -1
          -1          -1           0           0           0           0
           0           0           0           0           0           0
           0           0
RotTr to input orientation                 R   N=          12
  1.00000000E+00  0.00000000E+00  0.00000000E+00  0.00000000E+00  1.00000000E+00
  0.00000000E+00  0.00000000E+00  0.00000000E+00  1.00000000E+00 -1.18423789E-16
  0.00000000E+00  0.00000000E+00
Number of contracted shells                I               28
Number of primitive shells                 I               68
Pure/Cartesian d shells                    I                1
Pure/Cartesian f shells                    I                0
Highest angular momentum                   I                2
Largest degree of contraction              I                6
Shell types                                I   N=          28
           0          -1          -1           2           0           0
           0           0           0          -1          -1           2
           0           0           0          -1          -1           2
           0           0           0          -1          -1           2
           0           0           0           0
Number of primitives per shell             I   N=          28
           6           3           1           1           3           1
           3           1           6           3           1           1
           3           1           6           3           1           1
           3           1           6           3           1           1
           3           1           3           1
Shell to atom map                          I   N=          28
           1           1           1           1           2           2
           3           3           4           4           4           4
           5           5           6           6           6           6
           7           7           8           8           8           8
           9           9          10          10
Primitive exponents                        R   N=          68
  3.04752488E+03  4.57369518E+02  1.03948685E+02  2.92101553E+01  9.28666296E+00
  3.16392696E+00  7.86827235E+00  1.88128854E+00  5.44249258E-01  1.68714478E-01
  8.00000000E-01  1.87311370E+01  2.82539436E+00  6.40121692E-01  1.61277759E-01
  1.87311370E+01  2.82539436E+00  6.40121692E-01  1.61277759E-01  3.04752488E+03
  4.57369518E+02  1.03948685E+02  2.92101553E+01  9.28666296E+00  3.16392696E+00
  7.86827235E+00  1.88128854E+00  5.44249258E-01  1.68714478E-01  8.00000000E-01
  1.87311370E+01  2.82539436E+00  6.40121692E-01  1.61277759E-01  3.04752488E+03
  4.57369518E+02  1.03948685E+02  2.92101553E+01  9.28666296E+00  3.16392696E+00
  7.86827235E+00  1.88128854E+00  5.44249258E-01  1.68714478E-01  8.00000000E-01
  1.87311370E+01  2.82539436E+00  6.40121692E-01  1.61277759E-01  3.04752488E+03
  4.57369518E+02  1.03948685E+02  2.92101553E+01  9.28666296E+00  3.16392696E+00
  7.86827235E+00  1.88128854E+00  5.44249258E-01  1.68714478E-01  8.00000000E-01
  1.87311370E+01  2.82539436E+00  6.40121692E-01  1.61277759E-01  1.87311370E+01
  2.82539436E+00  6.40121692E-01  1.61277759E-01
Contraction coefficients                   R   N=          68
  1.83473713E-03  1.40373228E-02  6.88426223E-02  2.32184443E-01  4.67941348E-01
  3.62311985E-01 -1.19332420E-01 -1.60854152E-01  1.14345644E+00  1.00000000E+00
  1.00000000E+00  3.34946043E-02  2.34726953E-01  8.13757326E-01  1.00000000E+00
  3.34946043E-02  2.34726953E-01  8.13757326E-01  1.00000000E+00  1.83473713E-03
  1.40373228E-02  6.88426223E-02  2.32184443E-01  4.67941348E-01  3.62311985E-01
 -1.19332420E-01 -1.60854152E-01  1.14345644E+00  1.00000000E+00  1.00000000E+00
  3.34946043E-02  2.34726953E-01  8.13757326E-01  1.00000000E+00  1.83473713E-03
  1.40373228E-02  6.88426223E-02  2.32184443E-01  4.67941348E-01  3.62311985E-01
 -1.19332420E-01 -1.60854152E-01  1.14345644E+00  1.00000000E+00  1.00000000E+00
  3.34946043E-02  2.34726953E-01  8.13757326E-01  1.00000000E+00  1.83473713E-03
  1.40373228E-02  6.88426223E-02  2.32184443E-01  4.67941348E-01  3.62311985E-01
 -1.19332420E-01 -1.60854152E-01  1.14345644E+00  1.00000000E+00  1.00000000E+00
  3.34946043E-02  2.34726953E-01  8.13757326E-01  1.00000000E+00  3.34946043E-02
  2.34726953E-01  8.13757326E-01  1.00000000E+00
P(S=P) Contraction coefficients            R   N=          68
  0.00000000E+00  0.00000000E+00  0.00000000E+00  0.00000000E+00  0.00000000E+00
  0.00000000E+00  6.89990666E-02  3.16423961E-01  7.44308291E-01  1.00000000E+00
  0.00000000E+00  0.00000000E+00  0.00000000E+00  0.00000000E+00  0.00000000E+00
  0.00000000E+00  0.00000000E+00  0.00000000E+00  0.00000000E+00  0.00000000E+00
  0.00000000E+00  0.00000000E+00  0.00000000E+00  0.00000000E+00  0.00000000E+00
  6.89990666E-02  3.16423961E-01  7.44308291E-01  1.00000000E+00  0.00000000E+00
  0.00000000E+00  0.00000000E+00  0.00000000E+00  0.00000000E+00  0.00000000E+00
  0.00000000E+00  0.00000000E+00  0.00000000E+00  0.00000000E+00  0.00000000E+00
  6.89990666E-02  3.16423961E-01  7.44308291E-01  1.00000000E+00  0.00000000E+00
  0.00000000E+00  0.00000000E+00  0.00000000E+00  0.00000000E+00  0.00000000E+00
  0.00000000E+00  0.00000000E+00  0.00000000E+00  0.00000000E+00  0.00000000E+00
  6.89990666E-02  3.16423961E-01  7.44308291E-01  1.00000000E+00  0.00000000E+00
  0.00000000E+00  0.00000000E+00  0.00000000E+00  0.00000000E+00  0.00000000E+00
  0.00000000E+00  0.00000000E+00  0.00000000E+00
Coordinates of each shell                  R   N=          84
  1.13743014E+00  3.30971766E+00  0.00000000E+00  1.13743014E+00  3.30971766E+00
  0.00000000E+00  1.13743014E+00  3.30971766E+00  0.00000000E+00  1.13743014E+00
  3.30971766E+00  0.00000000E+00  2.88058610E+00  4.39200612E+00  0.00000000E+00
  2.88058610E+00  4.39200612E+00  0.00000000E+00 -6.14778421E-01  4.38516758E+00
  0.00000000E+00 -6.14778421E-01  4.38516758E+00  0.00000000E+00  1.13743014E+00
  7.76425669E-01  0.00000000E+00  1.13743014E+00  7.76425669E-01  0.00000000E+00
  1.13743014E+00  7.76425669E-01  0.00000000E+00  1.13743014E+00  7.76425669E-01
  0.00000000E+00  2.93210979E+00 -2.36491855E-01  0.00000000E+00  2.93210979E+00
 -2.36491855E-01  0.00000000E+00 -1.13743014E+00 -7.76425669E-01  0.00000000E+00
 -1.13743014E+00 -7.76425669E-01  0.00000000E+00 -1.13743014E+00 -7.76425669E-01
  0.00000000E+00 -1.13743014E+00 -7.76425669E-01  0.00000000E+00 -2.93210979E+00
  2.36491855E-01  0.00000000E+00 -2.93210979E+00  2.36491855E-01  0.00000000E+00
 -1.13743014E+00 -3.30971766E+00  0.00000000E+00 -1.13743014E+00 -3.30971766E+00
  0.00000000E+00 -1.13743014E+00 -3.30971766E+00  0.00000000E+00 -1.13743014E+00
 -3.30971766E+00  0.00000000E+00 -2.88058610E+00 -4.39200612E+00  0.00000000E+00
 -2.88058610E+00 -4.39200612E+00  0.00000000E+00  6.14778421E-01 -4.38516758E+00
  0.00000000E+00  6.14778421E-01 -4.38516758E+00  0.00000000E+00
Num ILSW                                   I              100
ILSW                                       I   N=         100
           1           1           0           0           2           0
           0           0           0           0         402          -1
           5           0           0           0           0           0
           0           0           1           0           0           0
           1           0           0           0           0           0
           0           0      100000           0          -1           0
           0           0           0           0           0           0
           0           0           0           1           0           0
           0 -2000000000           1           0           0           0
           0           0           4          52           0           0
           0           0           5           0           0           0
           0           0           0           0           0           1
           0           0           0           0           0           0
           0           0           0           0           0           0
           0           0           0           0           0           0
           0           0           0           0           0           0
           0           0           0           0
Num RLSW                                   I               52
RLSW                                       R   N=          52
  8.00000000E-01  7.20000000E-01  1.00000000E+00  8.10000000E-01  2.00000000E-01
  0.00000000E+00  0.00000000E+00  1.00000000E+00  0.00000000E+00  0.00000000E+00
  0.00000000E+00  0.00000000E+00  1.00000000E+00  0.00000000E+00  0.00000000E+00
  0.00000000E+00  0.00000000E+00  1.00000000E+00  0.00000000E+00  0.00000000E+00
  0.00000000E+00  0.00000000E+00  1.00000000E+00  0.00000000E+00  0.00000000E+00
  0.00000000E+00  0.00000000E+00  1.00000000E+00  0.00000000E+00  0.00000000E+00
  0.00000000E+00  0.00000000E+00  1.00000000E+00  0.00000000E+00  0.00000000E+00
  0.00000000E+00  0.00000000E+00  0.00000000E+00  1.00000000E+00  1.00000000E+00
  0.00000000E+00  1.00000000E+00  0.00000000E+00  0.00000000E+00  0.00000000E+00
  0.00000000E+00  0.00000000E+00  0.00000000E+00  0.00000000E+00  0.00000000E+00
  0.00000000E+00  0.00000000E+00
MxBond                                     I                3
NBond                                      I   N=          10
           3           1           1           3           1           3
           1           3           1           1
IBond                                      I   N=          30
           2           3           4           1           0           0
           1           0           0           1           5           6
           4           0           0           4           7           8
           6           0           0           6           9          10
           8           0           0           8           0           0
RBond                                      R   N=          30
  1.00000000E+00  1.00000000E+00  2.00000000E+00  1.00000000E+00  0.00000000E+00
  0.00000000E+00  1.00000000E+00  0.00000000E+00  0.00000000E+00  2.00000000E+00
  1.00000000E+00  1.00000000E+00  1.00000000E+00  0.00000000E+00  0.00000000E+00
  1.00000000E+00  1.00000000E+00  2.00000000E+00  1.00000000E+00  0.00000000E+00
  0.00000000E+00  2.00000000E+00  1.00000000E+00  1.00000000E+00  1.00000000E+00
  0.00000000E+00  0.00000000E+00  1.00000000E+00  0.00000000E+00  0.00000000E+00
Virial Ratio                               R      2.009361777215063E+00
SCF Energy                                 R     -1.556749055294800E+02
Total Energy                               R     -1.556749055294800E+02
S**2                                       R      7.666814985252266E-01
S**2 after annihilation                    R      7.500456310432246E-01
RMS Density                                R      5.209095982073009E-09
Job Status                                 I                1
Nuclear derivative order                   I                0
External E-field                           R   N=          35
  0.00000000E+00  0.00000000E+00  0.00000000E+00  0.00000000E+00  0.00000000E+00
  0.00000000E+00  0.00000000E+00  0.00000000E+00  0.00000000E+00  0.00000000E+00
  0.00000000E+00  0.00000000E+00  0.00000000E+00  0.00000000E+00  0.00000000E+00
  0.00000000E+00  0.00000000E+00  0.00000000E+00  0.00000000E+00  0.00000000E+00
  0.00000000E+00  0.00000000E+00  0.00000000E+00  0.00000000E+00  0.00000000E+00
  0.00000000E+00  0.00000000E+00  0.00000000E+00  0.00000000E+00  0.00000000E+00
  0.00000000E+00  0.00000000E+00  0.00000000E+00  0.00000000E+00  0.00000000E+00
IOpCl                                      I                1
IROHF                                      I                0
Alpha Orbital Energies                     R   N=          72
 -1.04582505E+01 -1.04582481E+01 -1.04544396E+01 -1.04540949E+01 -1.06590096E+00
 -9.99794706E-01 -8.53131057E-01 -7.91843479E-01 -7.13683603E-01 -7.07261249E-01
 -6.45381538E-01 -6.25149569E-01 -5.84912568E-01 -5.81014542E-01 -5.03973155E-01
 -2.86199745E-01 -1.68665094E-01 -9.21850137E-02 -7.85088667E-02 -7.26397477E-02
 -3.26333139E-02 -1.93732220E-02  1.24200195E-02  9.96895635E-02  1.24495163E-01
  1.67537618E-01  2.33767997E-01  2.85970723E-01  2.87529597E-01  3.30084964E-01
  3.65224251E-01  3.93585713E-01  4.26679640E-01  4.32169377E-01  4.34241922E-01
  4.49150998E-01  6.17416218E-01  6.30390834E-01  6.41379036E-01  6.62643649E-01
  7.12825435E-01  7.12973859E-01  7.35152983E-01  8.25636714E-01  8.86865999E-01
  9.03189024E-01  1.07607972E+00  1.09257248E+00  1.11717055E+00  1.15795328E+00
  1.27009179E+00  1.38162410E+00  1.49506162E+00  1.56085589E+00  1.62046949E+00
  1.69488116E+00  1.78502212E+00  1.83377463E+00  1.85481253E+00  1.90250092E+00
  2.05130664E+00  2.13418606E+00  2.14225165E+00  2.21169361E+00  2.34294966E+00
  2.47602905E+00  2.67150046E+00  2.72524593E+00  3.82350174E+00  3.85955476E+00
  3.95222434E+00  4.18713450E+00
Beta Orbital Energies                      R   N=          72
 -1.04534333E+01 -1.04530904E+01 -1.04517454E+01 -1.04517172E+01 -1.05349728E+00
 -9.78494881E-01 -8.42823516E-01 -7.87023111E-01 -7.07934105E-01 -7.02575339E-01
 -6.39736745E-01 -6.21569514E-01 -5.79890556E-01 -5.49084290E-01 -4.05402047E-01
 -2.42648689E-01 -1.43531003E-01 -9.05851882E-02 -7.59566710E-02 -6.64140613E-02
 -2.77055158E-02 -1.68458617E-02  1.60642195E-02  1.05370870E-01  1.26829483E-01
  1.70605614E-01  2.37744716E-01  2.90774877E-01  3.05045049E-01  3.62980355E-01
  3.70204711E-01  3.98008608E-01  4.35627344E-01  4.45454276E-01  4.50290773E-01
  4.62229354E-01  6.20359879E-01  6.34107369E-01  6.43817908E-01  6.65457102E-01
  7.16687530E-01  7.18779357E-01  7.42340423E-01  8.34456028E-01  8.92718478E-01
  9.07007678E-01  1.09260642E+00  1.09443799E+00  1.12326716E+00  1.17784897E+00
  1.29220250E+00  1.41282716E+00  1.51967451E+00  1.57595482E+00  1.62963405E+00
  1.69834227E+00  1.80737790E+00  1.84967759E+00  1.87219631E+00  1.91050258E+00
  2.07361280E+00  2.14944949E+00  2.15545010E+00  2.22791799E+00  2.34797925E+00
  2.48641382E+00  2.67415346E+00  2.72826789E+00  3.83266765E+00  3.87520934E+00
  3.96467817E+00  4.19327576E+00
Alpha MO coefficients                      R   N=        5184
  6.97465952E-01  3.51367244E-02 -2.46782906E-05 -3.22581167E-04  0.00000000E+00
 -7.89999714E-03 -9.28596470E-05  2.92294405E-04  0.00000000E+00 -6.96115231E-03
 -6.71074986E-03 -6.97102377E-03  2.58617332E-05  0.00000000E+00  0.00000000E+00
 -2.06258245E-04  1.51526014E-03 -2.09788476E-04  1.45920435E-03  7.80334788E-02
  3.50193499E-03 -1.27658327E-05 -2.37723538E-04  0.00000000E+00  1.90510088E-03
  3.33912567E-04  3.77177213E-04  0.00000000E+00 -9.02048563E-04 -1.02962376E-03
 -8.88202508E-04  1.66917554E-05  0.00000000E+00  0.00000000E+00 -1.45810860E-04
 -1.66320523E-04  7.80334788E-02  3.50193499E-03  1.27658327E-05  2.37723538E-04
  0.00000000E+00  1.90510088E-03 -3.33912567E-04 -3.77177213E-04  0.00000000E+00
 -9.02048563E-04 -1.02962376E-03 -8.88202508E-04  1.66917554E-05  0.00000000E+00
  0.00000000E+00 -1.45810860E-04 -1.66320523E-04  6.97465952E-01  3.51367244E-02
  2.46782906E-05  3.22581167E-04  0.00000000E+00 -7.89999714E-03  9.28596470E-05
 -2.92294405E-04  0.00000000E+00 -6.96115231E-03 -6.71074986E-03 -6.97102377E-03
  2.58617332E-05  0.00000000E+00  0.00000000E+00 -2.06258245E-04  1.51526014E-03
 -2.09788476E-04  1.45920435E-03  6.98127785E-01  3.52868610E-02 -2.03739086E-05
 -2.94077710E-04  0.00000000E+00 -9.37424999E-03  2.37624417E-05  1.11167628E-03
  0.00000000E+00 -6.96453915E-03 -6.75842699E-03 -6.93652214E-03 -4.44928934E-06
  0.00000000E+00  0.00000000E+00 -1.74710209E-04  1.36535689E-03 -1.56307356E-04
  1.36857377E-03  7.21052797E-02  3.38452583E-03 -2.11582677E-05 -3.72507246E-04
  0.00000000E+00  1.92889286E-03  4.78503004E-04  2.01378549E-03  0.00000000E+00
 -8.81366955E-04 -9.55092005E-04 -7.59386070E-04 -4.02092991E-05  0.00000000E+00
  0.00000000E+00 -2.81830807E-05  1.48707380E-04 -7.21052797E-02 -3.38452583E-03
 -2.11582677E-05 -3.72507246E-04  0.00000000E+00 -1.92889286E-03  4.78503004E-04
  2.01378549E-03  0.00000000E+00  8.81366955E-04  9.55092005E-04  7.59386070E-04
  4.02092991E-05  0.00000000E+00  0.00000000E+00  2.81830807E-05 -1.48707380E-04
 -6.98127785E-01 -3.52868610E-02 -2.03739086E-05 -2.94077710E-04  0.00000000E+00
  9.37424999E-03  2.37624417E-05  1.11167628E-03  0.00000000E+00  6.96453915E-03
  6.75842699E-03  6.93652214E-03  4.44928934E-06  0.00000000E+00  0.00000000E+00
  1.74710209E-04 -1.36535689E-03  1.56307356E-04 -1.36857377E-03 -7.83871031E-02
 -4.39538469E-03  1.82557363E-05  3.48901271E-04  0.00000000E+00  5.14672094E-03
 -4.18191791E-04 -1.73929998E-03  0.00000000E+00  6.58121664E-04  4.88636631E-04
  6.61474302E-04  3.27968496E-05  0.00000000E+00  0.00000000E+00 -2.53106254E-05
  1.86808240E-06 -7.70314371E-05 -4.29174549E-04  6.97521928E-01  3.47474792E-02
 -2.72695304E-05  4.22152160E-04  0.00000000E+00 -8.12102490E-03  4.19637759E-04
 -2.36925097E-03  0.00000000E+00 -6.95167361E-03 -6.53279036E-03 -6.84906218E-03
 -6.69456263E-05  0.00000000E+00  0.00000000E+00 -3.09276917E-04  8.26598226E-04
  6.97521928E-01  3.47474792E-02  2.72695304E-05 -4.22152160E-04  0.00000000E+00
 -8.12102490E-03 -4.19637759E-04  2.36925097E-03  0.00000000E+00 -6.95167361E-03
 -6.53279036E-03 -6.84906218E-03 -6.69456263E-05  0.00000000E+00  0.00000000E+00
 -3.09276917E-04  8.26598226E-04 -7.83871031E-02 -4.39538469E-03 -1.82557363E-05
 -3.48901271E-04  0.00000000E+00  5.14672094E-03  4.18191791E-04  1.73929998E-03
  0.00000000E+00  6.58121664E-04  4.88636631E-04  6.61474302E-04  3.27968496E-05
  0.00000000E+00  0.00000000E+00 -2.53106254E-05  1.86808240E-06 -7.70314371E-05
 -4.29174549E-04 -7.24171177E-02 -3.96537172E-03 -7.68931381E-08  3.33794693E-04
  0.00000000E+00  4.69944690E-03 -8.42855180E-04 -1.51600535E-03  0.00000000E+00
  5.49103504E-04  3.25108595E-04  6.61614728E-04  4.36161160E-05  0.00000000E+00
  0.00000000E+00  2.44255481E-05 -1.43842623E-05 -9.73874103E-05 -5.37650746E-04
  6.98380683E-01  3.51968008E-02 -3.98237368E-04  2.36699368E-04  0.00000000E+00
 -1.47812480E-02  2.74770784E-03  3.27560630E-04  0.00000000E+00 -6.31943038E-03
 -6.15829869E-03 -6.65413479E-03  1.46473968E-04  0.00000000E+00  0.00000000E+00
 -1.28354699E-04  1.20491801E-03 -6.98380683E-01 -3.51968008E-02 -3.98237368E-04
  2.36699368E-04  0.00000000E+00  1.47812480E-02  2.74770784E-03  3.27560630E-04
  0.00000000E+00  6.31943038E-03  6.15829869E-03  6.65413479E-03 -1.46473968E-04
  0.00000000E+00  0.00000000E+00  1.28354699E-04 -1.20491801E-03  7.24171177E-02
  3.96537172E-03 -7.68931381E-08  3.33794693E-04  0.00000000E+00 -4.69944690E-03
 -8.42855180E-04 -1.51600535E-03  0.00000000E+00 -5.49103504E-04 -3.25108595E-04
 -6.61614728E-04 -4.36161160E-05  0.00000000E+00  0.00000000E+00 -2.44255481E-05
  1.43842623E-05  9.73874103E-05  5.37650746E-04 -9.44582854E-02  1.86675188E-01
 -8.57921511E-03 -8.48833566E-02  0.00000000E+00  1.48106520E-01 -2.45487447E-03
 -1.51249655E-02  0.00000000E+00 -2.62215270E-03  6.83970430E-03 -7.24957855E-03
  8.81591618E-04  0.00000000E+00  0.00000000E+00  3.77782809E-02 -4.10601627E-04
  4.22212475E-02  1.05732706E-03 -1.34724402E-01  2.66949474E-01 -4.72927379E-02
  2.55840415E-02  0.00000000E+00  1.60078756E-01  3.11492261E-03 -2.01319483E-02
  0.00000000E+00  1.48245548E-03  5.34685789E-03 -1.26888350E-02  3.22257118E-03
  0.00000000E+00  0.00000000E+00  5.99368950E-02 -2.51800414E-03 -1.34724402E-01
  2.66949474E-01  4.72927379E-02 -2.55840415E-02  0.00000000E+00  1.60078756E-01
 -3.11492261E-03  2.01319483E-02  0.00000000E+00  1.48245548E-03  5.34685789E-03
 -1.26888350E-02  3.22257118E-03  0.00000000E+00  0.00000000E+00  5.99368950E-02
 -2.51800414E-03 -9.44582854E-02  1.86675188E-01  8.57921511E-03  8.48833566E-02
  0.00000000E+00  1.48106520E-01  2.45487447E-03  1.51249655E-02  0.00000000E+00
 -2.62215270E-03  6.83970430E-03 -7.24957855E-03  8.81591618E-04  0.00000000E+00
  0.00000000E+00  3.77782809E-02 -4.10601627E-04  4.22212475E-02  1.05732706E-03
 -1.31733515E-01  2.62893542E-01  4.70082216E-03 -8.09790401E-02  0.00000000E+00
  2.09140761E-01 -8.73978652E-03 -7.95285945E-03  0.00000000E+00 -1.34557249E-03
  5.05836104E-03 -9.65137808E-03 -3.45355691E-04  0.00000000E+00  0.00000000E+00
  6.82361642E-02  8.11943510E-03  6.51138438E-02 -1.93063309E-04 -8.75281383E-02
  1.77013853E-01  3.27018732E-02  1.43595840E-01  0.00000000E+00  1.07165961E-01
  2.13806044E-02  2.14981919E-02  0.00000000E+00 -7.66356460E-03  4.84324569E-03
 -7.02465375E-03 -6.49591224E-03  0.00000000E+00  0.00000000E+00  3.92087880E-02
 -2.71728833E-03  8.75281383E-02 -1.77013853E-01  3.27018732E-02  1.43595840E-01
  0.00000000E+00 -1.07165961E-01  2.13806044E-02  2.14981919E-02  0.00000000E+00
  7.66356460E-03 -4.84324569E-03  7.02465375E-03  6.49591224E-03  0.00000000E+00
  0.00000000E+00 -3.92087880E-02  2.71728833E-03  1.31733515E-01 -2.62893542E-01
  4.70082216E-03 -8.09790401E-02  0.00000000E+00 -2.09140761E-01 -8.73978652E-03
 -7.95285945E-03  0.00000000E+00  1.34557249E-03 -5.05836104E-03  9.65137808E-03
  3.45355691E-04  0.00000000E+00  0.00000000E+00 -6.82361642E-02 -8.11943510E-03
 -6.51138438E-02  1.93063309E-04 -1.12984944E-01  2.33644746E-01  3.03640500E-02
  8.50170802E-02  0.00000000E+00  2.40177471E-01  1.65371492E-02  2.64266097E-02
  0.00000000E+00  7.54833819E-03 -7.21999203E-03 -6.74585538E-03 -1.32350569E-03
  0.00000000E+00  0.00000000E+00  1.13094624E-01  2.51539752E-02  9.41223162E-02
  2.50517340E-02  7.71417416E-02 -1.60136269E-01  8.96430070E-02  1.69394013E-01
  0.00000000E+00 -1.57559324E-01  1.10403146E-02  3.50025050E-02  0.00000000E+00
 -1.07328513E-02  1.12160739E-02  6.40515853E-03 -2.06928012E-03  0.00000000E+00
  0.00000000E+00 -6.06283315E-02 -1.15520919E-02  7.71417416E-02 -1.60136269E-01
 -8.96430070E-02 -1.69394013E-01  0.00000000E+00 -1.57559324E-01 -1.10403146E-02
 -3.50025050E-02  0.00000000E+00 -1.07328513E-02  1.12160739E-02  6.40515853E-03
 -2.06928012E-03  0.00000000E+00  0.00000000E+00 -6.06283315E-02 -1.15520919E-02
 -1.12984944E-01  2.33644746E-01 -3.03640500E-02 -8.50170802E-02  0.00000000E+00
  2.40177471E-01 -1.65371492E-02 -2.64266097E-02  0.00000000E+00  7.54833819E-03
 -7.21999203E-03 -6.74585538E-03 -1.32350569E-03  0.00000000E+00  0.00000000E+00
  1.13094624E-01  2.51539752E-02  9.41223162E-02  2.50517340E-02  5.18512581E-02
 -1.07401572E-01  9.74542547E-02 -1.36677587E-01  0.00000000E+00 -1.21316920E-01
  4.05805369E-02 -3.63554382E-02  0.00000000E+00 -9.38110773E-03  7.93664560E-03
  3.17864478E-03 -2.25232813E-03  0.00000000E+00  0.00000000E+00 -4.12454459E-02
 -1.88122479E-02 -1.13856464E-01 -4.48253413E-02 -8.75307815E-02  1.81599913E-01
  1.80290953E-01 -6.29741114E-02  0.00000000E+00  2.05294295E-01  5.26271952E-02
 -3.55742958E-02  0.00000000E+00 -3.68386574E-04 -2.25597279E-03 -6.45211085E-03
 -7.00788417E-03  0.00000000E+00  0.00000000E+00  1.59173123E-01  6.25757519E-02
  8.75307815E-02 -1.81599913E-01  1.80290953E-01 -6.29741114E-02  0.00000000E+00
 -2.05294295E-01  5.26271952E-02 -3.55742958E-02  0.00000000E+00  3.68386574E-04
  2.25597279E-03  6.45211085E-03  7.00788417E-03  0.00000000E+00  0.00000000E+00
 -1.59173123E-01 -6.25757519E-02 -5.18512581E-02  1.07401572E-01  9.74542547E-02
 -1.36677587E-01  0.00000000E+00  1.21316920E-01  4.05805369E-02 -3.63554382E-02
  0.00000000E+00  9.38110773E-03 -7.93664560E-03 -3.17864478E-03  2.25232813E-03
  0.00000000E+00  0.00000000E+00  4.12454459E-02  1.88122479E-02  1.13856464E-01
  4.48253413E-02 -2.69527559E-02  5.61243623E-02  1.45137324E-01  2.70042599E-01
  0.00000000E+00  1.02437094E-01  6.89775523E-02  8.28841355E-02  0.00000000E+00
  1.43450374E-02 -8.50512415E-03 -1.21401532E-03  2.01680410E-03  0.00000000E+00
  0.00000000E+00  1.61377402E-01  7.45857684E-02  3.77081389E-02  2.37359813E-02
  3.08698648E-02 -6.84393852E-02  1.13021960E-01 -2.05919853E-01  0.00000000E+00
 -5.41593940E-02  3.70559546E-02 -6.81222380E-02  0.00000000E+00  6.11870258E-03
  4.66488571E-03  1.26818045E-03  5.75804183E-03  0.00000000E+00  0.00000000E+00
  7.36488742E-02  4.58133372E-02 -3.08698648E-02  6.84393852E-02  1.13021960E-01
 -2.05919853E-01  0.00000000E+00  5.41593940E-02  3.70559546E-02 -6.81222380E-02