title                                                                   
SP        UB3LYP                                                      def2TZVP            
Number of atoms                            I                1
Info1-9                                    I   N=           9
           9           8           0           0           0         110
           1          18        -502
Full Title                                 C   N=           1
title       
Route                                      C   N=           2
#p b3lyp/def2TZVP       
Charge                                     I                0
Multiplicity                               I                2
Number of electrons                        I               19
Number of alpha electrons                  I               10
Number of beta electrons                   I                9
Number of basis functions                  I               40
Number of independent functions            I               40
Number of point charges in /Mol/           I                0
Number of translation vectors              I                0
Atomic numbers                             I   N=           1
          79
Nuclear charges                            R   N=           1
  1.90000000E+01
Current cartesian coordinates              R   N=           3
  0.00000000E+00  0.00000000E+00  0.00000000E+00
Number of symbols in /Mol/                 I                0
Force Field                                I                0
Atom Types                                 C   N=           1
            
Int Atom Types                             I   N=           1
           0
MM charges                                 R   N=           1
  0.00000000E+00
Integer atomic weights                     I   N=           1
         197
Real atomic weights                        R   N=           1
  1.96966600E+02
Atom fragment info                         I   N=           1
           0
Atom residue num                           I   N=           1
           0
Nuclear spins                              I   N=           1
           3
Nuclear ZEff                               R   N=           1
 -1.20238000E+03
Nuclear ZNuc                               R   N=           1
  7.90000000E+01
Nuclear QMom                               R   N=           1
  5.47000000E+01
Nuclear GFac                               R   N=           1
  1.48159000E-01
MicOpt                                     I   N=           1
          -1
Number of residues                         I                0
Number of secondary structures             I                0
SymInf integers                            I   N=          26
           1           8           1           1           1           1
          -1          -1          -1           1          -1          -1
          -1           1          -1          -1          -1          -1
           1           1           1          -1           1           1
           1          -1
RotTr to input orientation                 R   N=          12
  0.00000000E+00  0.00000000E+00 -1.00000000E+00  0.00000000E+00  1.00000000E+00
  0.00000000E+00  1.00000000E+00  0.00000000E+00  0.00000000E+00  0.00000000E+00
  0.00000000E+00  0.00000000E+00
Number of contracted shells                I               14
Number of primitive shells                 I               22
Pure/Cartesian d shells                    I                0
Pure/Cartesian f shells                    I                0
Highest angular momentum                   I                3
Largest degree of contraction              I                4
Shell types                                I   N=          14
           0           0           0           0           0           0
           1           1           1           1          -2          -2
          -2          -3
Number of primitives per shell             I   N=          14
           3           1           1           1           1           1
           4           1           1           1           4           1
           1           1
Shell to atom map                          I   N=          14
           1           1           1           1           1           1
           1           1           1           1           1           1
           1           1
Primitive exponents                        R   N=          22
  3.00000000E+01  2.70000000E+01  1.47468243E+01  5.60172489E+00  1.38741624E+00
  6.29230320E-01  1.40275176E-01  4.93794138E-02  1.55000000E+01  1.40000000E+01
  6.42273682E+00  1.65956017E+00  7.94029140E-01  3.51251554E-01  4.50000000E-02
  9.55240987E+00  7.26988869E+00  1.77464968E+00  7.99605411E-01  3.32522794E-01
  1.24451331E-01  7.24820000E-01
Contraction coefficients                   R   N=          22
  7.87881586E-01 -1.26323527E+00  1.45441943E+00  1.00000000E+00  1.00000000E+00
  1.00000000E+00  1.00000000E+00  1.00000000E+00  3.28380714E-01 -5.16808173E-01
  6.88621080E-01 -1.25382618E+00  1.00000000E+00  1.00000000E+00  1.00000000E+00
  5.56208267E-02 -1.29806777E-01  4.39838052E-01  6.48337531E-01  1.00000000E+00
  1.00000000E+00  1.00000000E+00
Coordinates of each shell                  R   N=          42
  0.00000000E+00  0.00000000E+00  0.00000000E+00  0.00000000E+00  0.00000000E+00
  0.00000000E+00  0.00000000E+00  0.00000000E+00  0.00000000E+00  0.00000000E+00
  0.00000000E+00  0.00000000E+00  0.00000000E+00  0.00000000E+00  0.00000000E+00
  0.00000000E+00  0.00000000E+00  0.00000000E+00  0.00000000E+00  0.00000000E+00
  0.00000000E+00  0.00000000E+00  0.00000000E+00  0.00000000E+00  0.00000000E+00
  0.00000000E+00  0.00000000E+00  0.00000000E+00  0.00000000E+00  0.00000000E+00
  0.00000000E+00  0.00000000E+00  0.00000000E+00  0.00000000E+00  0.00000000E+00
  0.00000000E+00  0.00000000E+00  0.00000000E+00  0.00000000E+00  0.00000000E+00
  0.00000000E+00  0.00000000E+00
Num ILSW                                   I              100
ILSW                                       I   N=         100
           1           0           0           0           2           0
           0           0           0           0         402          -1
           5           0           0           0           0           0
           0           0           0           0           0           0
           1           0           0           0           0           0
           0           0      100000           0          -1           0
           0           0           0           0           0           0
           0           0           0           1           0           0
           0 -2000000000           1           0           0           0
           0           0           4          52           0           0
           0           0           5           0           0           0
           0           0           0           1           0           1
           0           0           0           0           0           0
           0           0           0           0           0           0
           0           0           0           0           0           0
           0           0           0           0           0           0
           0           0           0           0
Num RLSW                                   I               52
RLSW                                       R   N=          52
  8.00000000E-01  7.20000000E-01  1.00000000E+00  8.10000000E-01  2.00000000E-01
  0.00000000E+00  0.00000000E+00  1.00000000E+00  0.00000000E+00  0.00000000E+00
  0.00000000E+00  0.00000000E+00  1.00000000E+00  0.00000000E+00  0.00000000E+00
  0.00000000E+00  0.00000000E+00  1.00000000E+00  0.00000000E+00  0.00000000E+00
  0.00000000E+00  0.00000000E+00  1.00000000E+00  0.00000000E+00  0.00000000E+00
  0.00000000E+00  0.00000000E+00  1.00000000E+00  0.00000000E+00  0.00000000E+00
  0.00000000E+00  0.00000000E+00  1.00000000E+00  0.00000000E+00  0.00000000E+00
  0.00000000E+00  0.00000000E+00  0.00000000E+00  1.00000000E+00  1.00000000E+00
  0.00000000E+00  1.00000000E+00  0.00000000E+00  0.00000000E+00  0.00000000E+00
  0.00000000E+00  0.00000000E+00  0.00000000E+00  0.00000000E+00  0.00000000E+00
  0.00000000E+00  0.00000000E+00
ECP-MxAtEC                                 I            20000
ECP-MaxLECP                                I               10
ECP-MaxAtL                                 I           180000
ECP-MxTECP                                 I           900000
ECP-LenNCZ                                 I                9
ECP-KFirst                                 I   N=          10
           1           2           4           6           8           0
           0           0           0           0
ECP-KLast                                  I   N=          10
           1           3           5           7           9           0
           0           0           0           0
ECP-LMax                                   I   N=           1
           4
ECP-LPSkip                                 I   N=           1
           0
ECP-RNFroz                                 R   N=           1
  6.00000000E+01
ECP-NLP                                    I   N=           9
           2           2           2           2           2           2
           2           2           2
ECP-CLP1                                   R   N=           9
  0.00000000E+00  4.26846679E+02  3.70070830E+01  2.61199580E+02  2.69624960E+01
  1.24790666E+02  1.63007260E+01  3.04900890E+01  5.17107400E+00
ECP-CLP2                                   R   N=           9
  0.00000000E+00  0.00000000E+00  0.00000000E+00  0.00000000E+00  0.00000000E+00
  0.00000000E+00  0.00000000E+00  0.00000000E+00  0.00000000E+00
ECP-ZLP                                    R   N=           9
  1.00000000E+00  1.32051000E+01  6.60255000E+00  1.04520200E+01  5.22601000E+00
  7.85110000E+00  3.92555000E+00  4.78982000E+00  2.39491000E+00
MxBond                                     I                1
NBond                                      I   N=           1
           0
IBond                                      I   N=           1
           0
RBond                                      R   N=           1
  0.00000000E+00
Virial Ratio                               R      3.951437631602965E+00
SCF Energy                                 R     -1.357607248595614E+02
Total Energy                               R     -1.357607248595614E+02
S**2                                       R      7.506298108721055E-01
S**2 after annihilation                    R      7.500003578519452E-01
RMS Density                                R      9.353589443667831E-09
Job Status                                 I                1
Nuclear derivative order                   I                0
External E-field                           R   N=          35
  0.00000000E+00  0.00000000E+00  0.00000000E+00  0.00000000E+00  0.00000000E+00
  0.00000000E+00  0.00000000E+00  0.00000000E+00  0.00000000E+00  0.00000000E+00
  0.00000000E+00  0.00000000E+00  0.00000000E+00  0.00000000E+00  0.00000000E+00
  0.00000000E+00  0.00000000E+00  0.00000000E+00  0.00000000E+00  0.00000000E+00
  0.00000000E+00  0.00000000E+00  0.00000000E+00  0.00000000E+00  0.00000000E+00
  0.00000000E+00  0.00000000E+00  0.00000000E+00  0.00000000E+00  0.00000000E+00
  0.00000000E+00  0.00000000E+00  0.00000000E+00  0.00000000E+00  0.00000000E+00
IOpCl                                      I                1
IROHF                                      I                0
Alpha Orbital Energies                     R   N=          40
 -4.13701576E+00 -2.31385608E+00 -2.31385608E+00 -2.31385607E+00 -3.04352794E-01
 -3.04352791E-01 -3.04352790E-01 -3.04352790E-01 -3.04352788E-01 -2.42691006E-01
 -1.44213956E-02 -1.44213954E-02 -1.44213954E-02  1.34861104E-01  2.94227491E-01
  2.94227491E-01  2.94227491E-01  2.94227491E-01  2.94227492E-01  5.65884055E-01
  5.65884055E-01  5.65884057E-01  1.47375267E+00  1.47375267E+00  1.47375267E+00
  1.47375267E+00  1.47375267E+00  1.54949176E+00  1.54949176E+00  1.54949176E+00
  1.54949176E+00  1.54949176E+00  1.54949176E+00  1.54949176E+00  2.02293245E+00
  2.34831590E+01  2.34831590E+01  2.34831590E+01  4.37003876E+01  2.02279035E+02
Beta Orbital Energies                      R   N=          40
 -4.13430360E+00 -2.31217479E+00 -2.31217479E+00 -2.31217479E+00 -2.95451344E-01
 -2.95451336E-01 -2.95451334E-01 -2.95451333E-01 -2.95451333E-01 -1.67676651E-01
 -2.74613655E-03 -2.74613640E-03 -2.74613547E-03  1.44703950E-01  3.03385430E-01
  3.03385431E-01  3.03385431E-01  3.03385432E-01  3.03385432E-01  5.87485036E-01
  5.87485036E-01  5.87485037E-01  1.48678926E+00  1.48678926E+00  1.48678926E+00
  1.48678926E+00  1.48678926E+00  1.56060360E+00  1.56060360E+00  1.56060360E+00
  1.56060360E+00  1.56060360E+00  1.56060360E+00  1.56060360E+00  2.03498279E+00
  2.34878169E+01  2.34878169E+01  2.34878169E+01  4.36996439E+01  2.02272905E+02
Alpha MO coefficients                      R   N=        1600
  2.69550312E-01 -8.74712423E-01  1.00509532E+00  3.77329681E-01  8.51851323E-03
 -1.95098695E-03  0.00000000E+00  0.00000000E+00  0.00000000E+00  0.00000000E+00
  0.00000000E+00  0.00000000E+00  0.00000000E+00  0.00000000E+00  0.00000000E+00
  0.00000000E+00  0.00000000E+00  0.00000000E+00 -7.40981973E-10  0.00000000E+00
  0.00000000E+00 -1.03832108E-10  0.00000000E+00  1.14542249E-10  0.00000000E+00
  0.00000000E+00  1.69373066E-11  0.00000000E+00 -2.99209717E-11  0.00000000E+00
  0.00000000E+00 -3.31913316E-12  0.00000000E+00  0.00000000E+00  0.00000000E+00
  0.00000000E+00  0.00000000E+00  0.00000000E+00  0.00000000E+00  0.00000000E+00
  0.00000000E+00  0.00000000E+00  0.00000000E+00  0.00000000E+00  0.00000000E+00
  0.00000000E+00  0.00000000E+00 -4.63867103E-01  0.00000000E+00  0.00000000E+00
  4.87244090E-01  0.00000000E+00  0.00000000E+00  1.05858519E-01  0.00000000E+00
  0.00000000E+00  1.43509131E-03  0.00000000E+00  0.00000000E+00  0.00000000E+00
  0.00000000E+00  0.00000000E+00  0.00000000E+00  0.00000000E+00  0.00000000E+00
  0.00000000E+00  0.00000000E+00  0.00000000E+00  0.00000000E+00  0.00000000E+00
  0.00000000E+00  0.00000000E+00  0.00000000E+00  0.00000000E+00  0.00000000E+00
 -3.78958001E-10  0.00000000E+00  0.00000000E+00  0.00000000E+00 -2.90755212E-10
  0.00000000E+00  0.00000000E+00  0.00000000E+00  0.00000000E+00  0.00000000E+00
  0.00000000E+00 -4.63867103E-01  0.00000000E+00  0.00000000E+00  4.87244090E-01
  0.00000000E+00  0.00000000E+00  1.05858519E-01  0.00000000E+00  0.00000000E+00
  1.43509132E-03  0.00000000E+00  0.00000000E+00  0.00000000E+00  0.00000000E+00
  0.00000000E+00  0.00000000E+00  0.00000000E+00  0.00000000E+00  0.00000000E+00
  0.00000000E+00  0.00000000E+00  0.00000000E+00  0.00000000E+00  0.00000000E+00
  0.00000000E+00  0.00000000E+00  0.00000000E+00  0.00000000E+00 -2.67970757E-10
  0.00000000E+00  0.00000000E+00  0.00000000E+00  1.26177777E-10  0.00000000E+00
  0.00000000E+00  0.00000000E+00  0.00000000E+00  0.00000000E+00  0.00000000E+00
  0.00000000E+00  0.00000000E+00  0.00000000E+00 -4.63867103E-01  0.00000000E+00
  0.00000000E+00  4.87244090E-01  0.00000000E+00  0.00000000E+00  1.05858519E-01
  0.00000000E+00  0.00000000E+00  1.43509140E-03  0.00000000E+00  0.00000000E+00
  0.00000000E+00  0.00000000E+00  0.00000000E+00  0.00000000E+00  0.00000000E+00
  0.00000000E+00  0.00000000E+00  0.00000000E+00  0.00000000E+00  0.00000000E+00
  0.00000000E+00  0.00000000E+00  0.00000000E+00 -7.63914771E-10  0.00000000E+00
  0.00000000E+00 -1.30454598E-11  0.00000000E+00  0.00000000E+00  0.00000000E+00
  4.92314835E-10 -1.70683147E-09  3.01403213E-09  4.77181577E-10 -3.97434706E-09
 -5.04409541E-10  0.00000000E+00  0.00000000E+00  0.00000000E+00  0.00000000E+00
  0.00000000E+00  0.00000000E+00  0.00000000E+00  0.00000000E+00  0.00000000E+00
  0.00000000E+00  0.00000000E+00  0.00000000E+00  5.13454795E-02  0.00000000E+00
  0.00000000E+00  6.75631432E-01  0.00000000E+00  2.62585362E-02  0.00000000E+00
  0.00000000E+00  3.45523941E-01  0.00000000E+00  1.14318804E-02  0.00000000E+00
  0.00000000E+00  1.50426831E-01  0.00000000E+00  0.00000000E+00  0.00000000E+00
  0.00000000E+00  0.00000000E+00  0.00000000E+00  0.00000000E+00  0.00000000E+00
  0.00000000E+00  0.00000000E+00  0.00000000E+00  0.00000000E+00  0.00000000E+00
  0.00000000E+00  0.00000000E+00  0.00000000E+00  0.00000000E+00  0.00000000E+00
  0.00000000E+00  0.00000000E+00  0.00000000E+00  0.00000000E+00  0.00000000E+00
  0.00000000E+00  0.00000000E+00  0.00000000E+00  0.00000000E+00  0.00000000E+00
  0.00000000E+00  0.00000000E+00  6.77579653E-01  0.00000000E+00  0.00000000E+00
  0.00000000E+00  0.00000000E+00  3.46520280E-01  0.00000000E+00  0.00000000E+00
  0.00000000E+00  0.00000000E+00  1.50860600E-01  0.00000000E+00  0.00000000E+00
  0.00000000E+00  0.00000000E+00  0.00000000E+00  0.00000000E+00  0.00000000E+00
  0.00000000E+00  0.00000000E+00  0.00000000E+00  0.00000000E+00  0.00000000E+00
  0.00000000E+00  0.00000000E+00  0.00000000E+00  0.00000000E+00  0.00000000E+00
  0.00000000E+00  0.00000000E+00  0.00000000E+00  0.00000000E+00  0.00000000E+00
  0.00000000E+00  0.00000000E+00  0.00000000E+00  0.00000000E+00  0.00000000E+00
  6.77579653E-01  0.00000000E+00  0.00000000E+00  0.00000000E+00  0.00000000E+00
  3.46520280E-01  0.00000000E+00  0.00000000E+00  0.00000000E+00  0.00000000E+00
  1.50860600E-01  0.00000000E+00  0.00000000E+00  0.00000000E+00  0.00000000E+00
  0.00000000E+00  0.00000000E+00  0.00000000E+00  0.00000000E+00  0.00000000E+00
  0.00000000E+00  0.00000000E+00  0.00000000E+00  0.00000000E+00  0.00000000E+00
  0.00000000E+00  0.00000000E+00  0.00000000E+00  0.00000000E+00  0.00000000E+00
  0.00000000E+00  0.00000000E+00  0.00000000E+00  0.00000000E+00  0.00000000E+00
  0.00000000E+00  0.00000000E+00  0.00000000E+00  0.00000000E+00  6.77579653E-01
  0.00000000E+00  0.00000000E+00  0.00000000E+00  0.00000000E+00  3.46520280E-01
  0.00000000E+00  0.00000000E+00  0.00000000E+00  0.00000000E+00  1.50860601E-01
  0.00000000E+00  0.00000000E+00  0.00000000E+00  0.00000000E+00  0.00000000E+00
  0.00000000E+00  0.00000000E+00  0.00000000E+00  0.00000000E+00  0.00000000E+00
  2.22081015E-09 -7.69535918E-09  1.35408160E-08  2.20318432E-09 -1.74247234E-08
 -3.18041862E-09  0.00000000E+00  0.00000000E+00  0.00000000E+00  0.00000000E+00
  0.00000000E+00  0.00000000E+00  0.00000000E+00  0.00000000E+00  0.00000000E+00
  0.00000000E+00  0.00000000E+00  0.00000000E+00  6.75631428E-01  0.00000000E+00
  0.00000000E+00 -5.13454792E-02  0.00000000E+00  3.45523940E-01  0.00000000E+00
  0.00000000E+00 -2.62585362E-02  0.00000000E+00  1.50426837E-01  0.00000000E+00
  0.00000000E+00 -1.14318809E-02  0.00000000E+00  0.00000000E+00  0.00000000E+00
  0.00000000E+00  0.00000000E+00  0.00000000E+00  0.00000000E+00  0.00000000E+00
 -9.36328774E-02  3.23875552E-01 -5.26868644E-01 -2.24215978E-01  7.66862485E-01
  4.35586957E-01  0.00000000E+00  0.00000000E+00  0.00000000E+00  0.00000000E+00
  0.00000000E+00  0.00000000E+00  0.00000000E+00  0.00000000E+00  0.00000000E+00
  0.00000000E+00  0.00000000E+00  0.00000000E+00  1.16873674E-08  0.00000000E+00
  0.00000000E+00  1.60689753E-09  0.00000000E+00  4.82276180E-09  0.00000000E+00
  0.00000000E+00  6.68344902E-10  0.00000000E+00  4.92000522E-09  0.00000000E+00
  0.00000000E+00  6.95559641E-10  0.00000000E+00  0.00000000E+00  0.00000000E+00
  0.00000000E+00  0.00000000E+00  0.00000000E+00  0.00000000E+00  0.00000000E+00
  0.00000000E+00  0.00000000E+00  0.00000000E+00  0.00000000E+00  0.00000000E+00
  0.00000000E+00  0.00000000E+00  0.00000000E+00  8.10171378E-02  0.00000000E+00
  0.00000000E+00 -1.95413027E-01  0.00000000E+00  0.00000000E+00  1.86873347E-01
  0.00000000E+00  0.00000000E+00  9.56756714E-01  0.00000000E+00  0.00000000E+00
  0.00000000E+00  0.00000000E+00  0.00000000E+00  0.00000000E+00  0.00000000E+00
  0.00000000E+00  0.00000000E+00  0.00000000E+00  0.00000000E+00  0.00000000E+00
  0.00000000E+00  0.00000000E+00  0.00000000E+00 -3.33845318E-10  0.00000000E+00
  0.00000000E+00 -1.84264949E-11  0.00000000E+00  0.00000000E+00  0.00000000E+00
  0.00000000E+00  0.00000000E+00  0.00000000E+00  0.00000000E+00  0.00000000E+00
  0.00000000E+00  8.10171380E-02  0.00000000E+00  0.00000000E+00 -1.95413028E-01
  0.00000000E+00  0.00000000E+00  1.86873349E-01  0.00000000E+00  0.00000000E+00
  9.56756714E-01  0.00000000E+00  0.00000000E+00  0.00000000E+00  0.00000000E+00
  0.00000000E+00  0.00000000E+00  0.00000000E+00  0.00000000E+00  0.00000000E+00
  0.00000000E+00  0.00000000E+00  0.00000000E+00  0.00000000E+00  0.00000000E+00
  0.00000000E+00  0.00000000E+00  0.00000000E+00  0.00000000E+00 -4.70120589E-11
  0.00000000E+00  0.00000000E+00  0.00000000E+00 -1.68183262E-10  0.00000000E+00
  0.00000000E+00  0.00000000E+00  0.00000000E+00  0.00000000E+00  0.00000000E+00
  0.00000000E+00  0.00000000E+00  8.10171380E-02  0.00000000E+00  0.00000000E+00
 -1.95413028E-01  0.00000000E+00  0.00000000E+00  1.86873349E-01  0.00000000E+00
  0.00000000E+00  9.56756714E-01  0.00000000E+00  0.00000000E+00  0.00000000E+00
  0.00000000E+00  0.00000000E+00  0.00000000E+00  0.00000000E+00  0.00000000E+00
  0.00000000E+00  0.00000000E+00  0.00000000E+00  0.00000000E+00  0.00000000E+00
  0.00000000E+00  0.00000000E+00  0.00000000E+00  0.00000000E+00  0.00000000E+00
 -4.79150386E-11  0.00000000E+00  0.00000000E+00  0.00000000E+00  1.36912110E-10
 -6.78970575E-02  2.36438870E-01 -3.05526804E-01 -5.05593739E-01  2.17487848E+00
 -1.88357268E+00  0.00000000E+00  0.00000000E+00  0.00000000E+00  0.00000000E+00
  0.00000000E+00  0.00000000E+00  0.00000000E+00  0.00000000E+00  0.00000000E+00
  0.00000000E+00  0.00000000E+00  0.00000000E+00  1.94703314E-09  0.00000000E+00
  0.00000000E+00  3.30276109E-10  0.00000000E+00  9.51111278E-11  0.00000000E+00
  0.00000000E+00  6.57874158E-11  0.00000000E+00  1.48554503E-09  0.00000000E+00
  0.00000000E+00  2.05908747E-10  0.00000000E+00  0.00000000E+00  0.00000000E+00
  0.00000000E+00  0.00000000E+00  0.00000000E+00  0.00000000E+00  0.00000000E+00
  0.00000000E+00  0.00000000E+00  0.00000000E+00  0.00000000E+00  0.00000000E+00
  0.00000000E+00  0.00000000E+00  0.00000000E+00  0.00000000E+00  0.00000000E+00
  0.00000000E+00  0.00000000E+00  0.00000000E+00  0.00000000E+00  0.00000000E+00
  0.00000000E+00  0.00000000E+00  0.00000000E+00  0.00000000E+00  0.00000000E+00
  0.00000000E+00  0.00000000E+00 -2.78501331E-01  0.00000000E+00  0.00000000E+00
  0.00000000E+00  0.00000000E+00 -4.21287472E-01  0.00000000E+00  0.00000000E+00
  0.00000000E+00  0.00000000E+00  1.18466232E+00  0.00000000E+00  0.00000000E+00
  0.00000000E+00  0.00000000E+00  0.00000000E+00  0.00000000E+00  0.00000000E+00
  0.00000000E+00  0.00000000E+00  0.00000000E+00  0.00000000E+00  0.00000000E+00
  0.00000000E+00  0.00000000E+00  0.00000000E+00  0.00000000E+00  0.00000000E+00
  0.00000000E+00  0.00000000E+00  0.00000000E+00  0.00000000E+00  0.00000000E+00
  0.00000000E+00  0.00000000E+00  0.00000000E+00  0.00000000E+00  0.00000000E+00
 -2.78501331E-01  0.00000000E+00  0.00000000E+00  0.00000000E+00  0.00000000E+00
 -4.21287473E-01  0.00000000E+00  0.00000000E+00  0.00000000E+00  0.00000000E+00
  1.18466232E+00  0.00000000E+00  0.00000000E+00  0.00000000E+00  0.00000000E+00
  0.00000000E+00  0.00000000E+00  0.00000000E+00  0.00000000E+00  0.00000000E+00
  0.00000000E+00  0.00000000E+00  0.00000000E+00  0.00000000E+00  0.00000000E+00
  0.00000000E+00  0.00000000E+00  0.00000000E+00  0.00000000E+00  0.00000000E+00
  0.00000000E+00  0.00000000E+00  0.00000000E+00  0.00000000E+00  0.00000000E+00
  0.00000000E+00  0.00000000E+00  0.00000000E+00  0.00000000E+00 -2.78501331E-01
  0.00000000E+00  0.00000000E+00  0.00000000E+00  0.00000000E+00 -4.21287473E-01
  0.00000000E+00  0.00000000E+00  0.00000000E+00  0.00000000E+00  1.18466232E+00
  0.00000000E+00  0.00000000E+00  0.00000000E+00  0.00000000E+00  0.00000000E+00
  0.00000000E+00  0.00000000E+00  0.00000000E+00  0.00000000E+00  0.00000000E+00
  8.21292608E-12 -2.64626718E-11 -7.63064621E-11  4.03886513E-10 -6.87074066E-10
  1.45034964E-10  0.00000000E+00  0.00000000E+00  0.00000000E+00  0.00000000E+00
  0.00000000E+00  0.00000000E+00  0.00000000E+00  0.00000000E+00  0.00000000E+00
  0.00000000E+00  0.00000000E+00  0.00000000E+00 -1.62866574E-02  0.00000000E+00
  0.00000000E+00 -2.78024701E-01  0.00000000E+00 -2.46367396E-02  0.00000000E+00
  0.00000000E+00 -4.20566479E-01  0.00000000E+00  6.92786263E-02  0.00000000E+00
  0.00000000E+00  1.18263489E+00  0.00000000E+00  0.00000000E+00  0.00000000E+00
  0.00000000E+00  0.00000000E+00  0.00000000E+00  0.00000000E+00  0.00000000E+00
  3.12767409E-11 -9.83352930E-11 -4.78433772E-10  2.10844978E-09 -3.50811061E-09
  8.44441263E-10  0.00000000E+00  0.00000000E+00  0.00000000E+00  0.00000000E+00
  0.00000000E+00  0.00000000E+00  0.00000000E+00  0.00000000E+00  0.00000000E+00
  0.00000000E+00  0.00000000E+00  0.00000000E+00 -2.78024704E-01  0.00000000E+00
  0.00000000E+00  1.62866577E-02  0.00000000E+00 -4.20566483E-01  0.00000000E+00
  0.00000000E+00  2.46367400E-02  0.00000000E+00  1.18263489E+00  0.00000000E+00
  0.00000000E+00 -6.92786263E-02  0.00000000E+00  0.00000000E+00  0.00000000E+00
  0.00000000E+00  0.00000000E+00  0.00000000E+00  0.00000000E+00  0.00000000E+00
  0.00000000E+00  0.00000000E+00  0.00000000E+00  0.00000000E+00  0.00000000E+00
  0.00000000E+00  0.00000000E+00  2.60978236E-01  0.00000000E+00  0.00000000E+00
 -9.88414211E-01  0.00000000E+00  0.00000000E+00  1.69025736E+00  0.00000000E+00
  0.00000000E+00 -5.03251842E-01  0.00000000E+00  0.00000000E+00  0.00000000E+00
  0.00000000E+00  0.00000000E+00  0.00000000E+00  0.00000000E+00  0.00000000E+00
  0.00000000E+00  0.00000000E+00  0.00000000E+00  0.00000000E+00  0.00000000E+00
  0.00000000E+00  0.00000000E+00  0.00000000E+00  0.00000000E+00  0.00000000E+00
 -6.13642224E-10  0.00000000E+00  0.00000000E+00  0.00000000E+00  1.50689735E-10
  0.00000000E+00  0.00000000E+00  0.00000000E+00  0.00000000E+00  0.00000000E+00
  0.00000000E+00  2.60978236E-01  0.00000000E+00  0.00000000E+00 -9.88414211E-01
  0.00000000E+00  0.00000000E+00  1.69025736E+00  0.00000000E+00  0.00000000E+00
 -5.03251842E-01  0.00000000E+00  0.00000000E+00  0.00000000E+00  0.00000000E+00
  0.00000000E+00  0.00000000E+00  0.00000000E+00  0.00000000E+00  0.00000000E+00
  0.00000000E+00  0.00000000E+00  0.00000000E+00  0.00000000E+00  0.00000000E+00
  0.00000000E+00  0.00000000E+00  0.00000000E+00  0.00000000E+00 -4.97899972E-10
  0.00000000E+00  0.00000000E+00  0.00000000E+00 -4.36482521E-10  0.00000000E+00
  0.00000000E+00  0.00000000E+00  0.00000000E+00  0.00000000E+00  0.00000000E+00
  0.00000000E+00  0.00000000E+00  0.00000000E+00  2.60978236E-01  0.00000000E+00
  0.00000000E+00 -9.88414211E-01  0.00000000E+00  0.00000000E+00  1.69025736E+00
  0.00000000E+00  0.00000000E+00 -5.03251841E-01  0.00000000E+00  0.00000000E+00
  0.00000000E+00  0.00000000E+00  0.00000000E+00  0.00000000E+00  0.00000000E+00
  0.00000000E+00  0.00000000E+00  0.00000000E+00  0.00000000E+00  0.00000000E+00
  0.00000000E+00  0.00000000E+00  0.00000000E+00 -1.90467613E-09  0.00000000E+00
  0.00000000E+00 -8.34985881E-11  0.00000000E+00  0.00000000E+00  0.00000000E+00
 -4.82729290E-11  1.76532375E-10 -4.28046849E-10  2.82907180E-10  9.72398994E-12
 -1.85057441E-11  0.00000000E+00  0.00000000E+00  0.00000000E+00  0.00000000E+00
  0.00000000E+00  0.00000000E+00  0.00000000E+00  0.00000000E+00  0.00000000E+00
  0.00000000E+00  0.00000000E+00  0.00000000E+00 -7.81254376E-02  0.00000000E+00
  0.00000000E+00 -1.11756190E+00  0.00000000E+00  1.16348888E-01  0.00000000E+00
  0.00000000E+00  1.66433736E+00  0.00000000E+00 -5.39473557E-02  0.00000000E+00
  0.00000000E+00 -7.71701399E-01  0.00000000E+00  0.00000000E+00  0.00000000E+00
  0.00000000E+00  0.00000000E+00  0.00000000E+00  0.00000000E+00  0.00000000E+00
  0.00000000E+00  0.00000000E+00  0.00000000E+00  0.00000000E+00  0.00000000E+00
  0.00000000E+00  0.00000000E+00  0.00000000E+00  0.00000000E+00  0.00000000E+00
  0.00000000E+00  0.00000000E+00  0.00000000E+00  0.00000000E+00  0.00000000E+00
  0.00000000E+00  0.00000000E+00  0.00000000E+00  0.00000000E+00  0.00000000E+00
  0.00000000E+00  0.00000000E+00 -1.12028933E+00  0.00000000E+00  0.00000000E+00
  0.00000000E+00  0.00000000E+00  1.66839920E+00  0.00000000E+00  0.00000000E+00
  0.00000000E+00  0.00000000E+00 -7.73584750E-01  0.00000000E+00  0.00000000E+00
  0.00000000E+00  0.00000000E+00  0.00000000E+00  0.00000000E+00  0.00000000E+00
  0.00000000E+00  0.00000000E+00  0.00000000E+00  0.00000000E+00  0.00000000E+00
  0.00000000E+00  0.00000000E+00  0.00000000E+00  0.00000000E+00  0.00000000E+00
  0.00000000E+00  0.00000000E+00  0.00000000E+00  0.00000000E+00  0.00000000E+00
  0.00000000E+00  0.00000000E+00  0.00000000E+00  0.00000000E+00  0.00000000E+00
 -1.12028933E+00  0.00000000E+00  0.00000000E+00  0.00000000E+00  0.00000000E+00
  1.66839920E+00  0.00000000E+00  0.00000000E+00  0.00000000E+00  0.00000000E+00
 -7.73584750E-01  0.00000000E+00  0.00000000E+00  0.00000000E+00  0.00000000E+00
  0.00000000E+00  0.00000000E+00  0.00000000E+00  0.00000000E+00  0.00000000E+00
  0.00000000E+00  0.00000000E+00  0.00000000E+00  0.00000000E+00  0.00000000E+00
  0.00000000E+00  0.00000000E+00  0.00000000E+00  0.00000000E+00  0.00000000E+00
  0.00000000E+00  0.00000000E+00  0.00000000E+00  0.00000000E+00  0.00000000E+00
  0.00000000E+00  0.00000000E+00  0.00000000E+00  0.00000000E+00 -1.12028933E+00