Title Card Required                                                     
SP        RB3LYP                                                      6-31G(d)            
Number of atoms                            I               12
Info1-9                                    I   N=           9
          33          19           0           0           0         110
           1          18        -502
Full Title                                 C   N=           2
Title Card Required     
Route                                      C   N=           2
# B3LYP/6-31G*          
Charge                                     I                0
Multiplicity                               I                1
Number of electrons                        I               42
Number of alpha electrons                  I               21
Number of beta electrons                   I               21
Number of basis functions                  I              102
Number of independent functions            I              102
Number of point charges in /Mol/           I                0
Number of translation vectors              I                0
Atomic numbers                             I   N=          12
           6           6           6           6           6           6
           1           1           1           1           1           1
Nuclear charges                            R   N=          12
  6.00000000E+00  6.00000000E+00  6.00000000E+00  6.00000000E+00  6.00000000E+00
  6.00000000E+00  1.00000000E+00  1.00000000E+00  1.00000000E+00  1.00000000E+00
  1.00000000E+00  1.00000000E+00
Current cartesian coordinates              R   N=          36
  0.00000000E+00  2.63615029E+00  0.00000000E+00  2.28297312E+00  1.31807515E+00
 -4.93038066E-32  2.28297312E+00 -1.31807515E+00 -4.93038066E-32 -6.37899524E-48
 -2.63615029E+00 -2.74365458E-32 -2.28297312E+00 -1.31807515E+00 -4.93038066E-32
 -2.28297312E+00  1.31807515E+00  0.00000000E+00  0.00000000E+00  4.71411262E+00
  0.00000000E+00  4.08254129E+00  2.35705631E+00 -9.86076132E-32  4.08254129E+00
 -2.35705631E+00 -1.97215226E-31 -1.14072790E-47 -4.71411262E+00 -4.38436956E-32
 -4.08254129E+00 -2.35705631E+00 -1.97215226E-31 -4.08254129E+00  2.35705631E+00
 -9.86076132E-32
Number of symbols in /Mol/                 I                0
Force Field                                I                0
Atom Types                                 C   N=          12
                                                            
                                                            
                        
Int Atom Types                             I   N=          12
           0           0           0           0           0           0
           0           0           0           0           0           0
MM charges                                 R   N=          12
  0.00000000E+00  0.00000000E+00  0.00000000E+00  0.00000000E+00  0.00000000E+00
  0.00000000E+00  0.00000000E+00  0.00000000E+00  0.00000000E+00  0.00000000E+00
  0.00000000E+00  0.00000000E+00
Integer atomic weights                     I   N=          12
          12          12          12          12          12          12
           1           1           1           1           1           1
Real atomic weights                        R   N=          12
  1.20000000E+01  1.20000000E+01  1.20000000E+01  1.20000000E+01  1.20000000E+01
  1.20000000E+01  1.00782504E+00  1.00782504E+00  1.00782504E+00  1.00782504E+00
  1.00782504E+00  1.00782504E+00
Atom fragment info                         I   N=          12
           0           0           0           0           0           0
           0           0           0           0           0           0
Atom residue num                           I   N=          12
           0           0           0           0           0           0
           0           0           0           0           0           0
Nuclear spins                              I   N=          12
           0           0           0           0           0           0
           1           1           1           1           1           1
Nuclear ZEff                               R   N=          12
 -3.60000000E+00 -3.60000000E+00 -3.60000000E+00 -3.60000000E+00 -3.60000000E+00
 -3.60000000E+00 -1.00000000E+00 -1.00000000E+00 -1.00000000E+00 -1.00000000E+00
 -1.00000000E+00 -1.00000000E+00
Nuclear ZNuc                               R   N=          12
  6.00000000E+00  6.00000000E+00  6.00000000E+00  6.00000000E+00  6.00000000E+00
  6.00000000E+00  1.00000000E+00  1.00000000E+00  1.00000000E+00  1.00000000E+00
  1.00000000E+00  1.00000000E+00
Nuclear QMom                               R   N=          12
  0.00000000E+00  0.00000000E+00  0.00000000E+00  0.00000000E+00  0.00000000E+00
  0.00000000E+00  0.00000000E+00  0.00000000E+00  0.00000000E+00  0.00000000E+00
  0.00000000E+00  0.00000000E+00
Nuclear GFac                               R   N=          12
  0.00000000E+00  0.00000000E+00  0.00000000E+00  0.00000000E+00  0.00000000E+00
  0.00000000E+00  2.79284600E+00  2.79284600E+00  2.79284600E+00  2.79284600E+00
  2.79284600E+00  2.79284600E+00
MicOpt                                     I   N=          12
          -1          -1          -1          -1          -1          -1
          -1          -1          -1          -1          -1          -1
Number of residues                         I                0
Number of secondary structures             I                0
SymInf integers                            I   N=          26
           4           8           1           1           1          -1
          -1           1          -1           1          -1           1
          -1          -1          -1           1           1           1
          -1           1           1           1          -1          -1
          -1          -1
RotTr to input orientation                 R   N=          12
 -5.00000002E-01  8.66025403E-01 -1.22464680E-16  8.66025403E-01  5.00000002E-01
  0.00000000E+00  6.12323402E-17 -1.06057524E-16 -1.00000000E+00  0.00000000E+00
  1.05735526E-17  0.00000000E+00
Number of contracted shells                I               36
Number of primitive shells                 I               90
Pure/Cartesian d shells                    I                1
Pure/Cartesian f shells                    I                0
Highest angular momentum                   I                2
Largest degree of contraction              I                6
Shell types                                I   N=          36
           0          -1          -1           2           0          -1
          -1           2           0          -1          -1           2
           0          -1          -1           2           0          -1
          -1           2           0          -1          -1           2
           0           0           0           0           0           0
           0           0           0           0           0           0
Number of primitives per shell             I   N=          36
           6           3           1           1           6           3
           1           1           6           3           1           1
           6           3           1           1           6           3
           1           1           6           3           1           1
           3           1           3           1           3           1
           3           1           3           1           3           1
Shell to atom map                          I   N=          36
           1           1           1           1           2           2
           2           2           3           3           3           3
           4           4           4           4           5           5
           5           5           6           6           6           6
           7           7           8           8           9           9
          10          10          11          11          12          12
Primitive exponents                        R   N=          90
  3.04752488E+03  4.57369518E+02  1.03948685E+02  2.92101553E+01  9.28666296E+00
  3.16392696E+00  7.86827235E+00  1.88128854E+00  5.44249258E-01  1.68714478E-01
  8.00000000E-01  3.04752488E+03  4.57369518E+02  1.03948685E+02  2.92101553E+01
  9.28666296E+00  3.16392696E+00  7.86827235E+00  1.88128854E+00  5.44249258E-01
  1.68714478E-01  8.00000000E-01  3.04752488E+03  4.57369518E+02  1.03948685E+02
  2.92101553E+01  9.28666296E+00  3.16392696E+00  7.86827235E+00  1.88128854E+00
  5.44249258E-01  1.68714478E-01  8.00000000E-01  3.04752488E+03  4.57369518E+02
  1.03948685E+02  2.92101553E+01  9.28666296E+00  3.16392696E+00  7.86827235E+00
  1.88128854E+00  5.44249258E-01  1.68714478E-01  8.00000000E-01  3.04752488E+03
  4.57369518E+02  1.03948685E+02  2.92101553E+01  9.28666296E+00  3.16392696E+00
  7.86827235E+00  1.88128854E+00  5.44249258E-01  1.68714478E-01  8.00000000E-01
  3.04752488E+03  4.57369518E+02  1.03948685E+02  2.92101553E+01  9.28666296E+00
  3.16392696E+00  7.86827235E+00  1.88128854E+00  5.44249258E-01  1.68714478E-01
  8.00000000E-01  1.87311370E+01  2.82539436E+00  6.40121692E-01  1.61277759E-01
  1.87311370E+01  2.82539436E+00  6.40121692E-01  1.61277759E-01  1.87311370E+01
  2.82539436E+00  6.40121692E-01  1.61277759E-01  1.87311370E+01  2.82539436E+00
  6.40121692E-01  1.61277759E-01  1.87311370E+01  2.82539436E+00  6.40121692E-01
  1.61277759E-01  1.87311370E+01  2.82539436E+00  6.40121692E-01  1.61277759E-01
Contraction coefficients                   R   N=          90
  1.83473713E-03  1.40373228E-02  6.88426223E-02  2.32184443E-01  4.67941348E-01
  3.62311985E-01 -1.19332420E-01 -1.60854152E-01  1.14345644E+00  1.00000000E+00
  1.00000000E+00  1.83473713E-03  1.40373228E-02  6.88426223E-02  2.32184443E-01
  4.67941348E-01  3.62311985E-01 -1.19332420E-01 -1.60854152E-01  1.14345644E+00
  1.00000000E+00  1.00000000E+00  1.83473713E-03  1.40373228E-02  6.88426223E-02
  2.32184443E-01  4.67941348E-01  3.62311985E-01 -1.19332420E-01 -1.60854152E-01
  1.14345644E+00  1.00000000E+00  1.00000000E+00  1.83473713E-03  1.40373228E-02
  6.88426223E-02  2.32184443E-01  4.67941348E-01  3.62311985E-01 -1.19332420E-01
 -1.60854152E-01  1.14345644E+00  1.00000000E+00  1.00000000E+00  1.83473713E-03
  1.40373228E-02  6.88426223E-02  2.32184443E-01  4.67941348E-01  3.62311985E-01
 -1.19332420E-01 -1.60854152E-01  1.14345644E+00  1.00000000E+00  1.00000000E+00
  1.83473713E-03  1.40373228E-02  6.88426223E-02  2.32184443E-01  4.67941348E-01
  3.62311985E-01 -1.19332420E-01 -1.60854152E-01  1.14345644E+00  1.00000000E+00
  1.00000000E+00  3.34946043E-02  2.34726953E-01  8.13757326E-01  1.00000000E+00
  3.34946043E-02  2.34726953E-01  8.13757326E-01  1.00000000E+00  3.34946043E-02
  2.34726953E-01  8.13757326E-01  1.00000000E+00  3.34946043E-02  2.34726953E-01
  8.13757326E-01  1.00000000E+00  3.34946043E-02  2.34726953E-01  8.13757326E-01
  1.00000000E+00  3.34946043E-02  2.34726953E-01  8.13757326E-01  1.00000000E+00
P(S=P) Contraction coefficients            R   N=          90
  0.00000000E+00  0.00000000E+00  0.00000000E+00  0.00000000E+00  0.00000000E+00
  0.00000000E+00  6.89990666E-02  3.16423961E-01  7.44308291E-01  1.00000000E+00
  0.00000000E+00  0.00000000E+00  0.00000000E+00  0.00000000E+00  0.00000000E+00
  0.00000000E+00  0.00000000E+00  6.89990666E-02  3.16423961E-01  7.44308291E-01
  1.00000000E+00  0.00000000E+00  0.00000000E+00  0.00000000E+00  0.00000000E+00
  0.00000000E+00  0.00000000E+00  0.00000000E+00  6.89990666E-02  3.16423961E-01
  7.44308291E-01  1.00000000E+00  0.00000000E+00  0.00000000E+00  0.00000000E+00
  0.00000000E+00  0.00000000E+00  0.00000000E+00  0.00000000E+00  6.89990666E-02
  3.16423961E-01  7.44308291E-01  1.00000000E+00  0.00000000E+00  0.00000000E+00
  0.00000000E+00  0.00000000E+00  0.00000000E+00  0.00000000E+00  0.00000000E+00
  6.89990666E-02  3.16423961E-01  7.44308291E-01  1.00000000E+00  0.00000000E+00
  0.00000000E+00  0.00000000E+00  0.00000000E+00  0.00000000E+00  0.00000000E+00
  0.00000000E+00  6.89990666E-02  3.16423961E-01  7.44308291E-01  1.00000000E+00
  0.00000000E+00  0.00000000E+00  0.00000000E+00  0.00000000E+00  0.00000000E+00
  0.00000000E+00  0.00000000E+00  0.00000000E+00  0.00000000E+00  0.00000000E+00
  0.00000000E+00  0.00000000E+00  0.00000000E+00  0.00000000E+00  0.00000000E+00
  0.00000000E+00  0.00000000E+00  0.00000000E+00  0.00000000E+00  0.00000000E+00
  0.00000000E+00  0.00000000E+00  0.00000000E+00  0.00000000E+00  0.00000000E+00
Coordinates of each shell                  R   N=         108
  0.00000000E+00  2.63615029E+00  0.00000000E+00  0.00000000E+00  2.63615029E+00
  0.00000000E+00  0.00000000E+00  2.63615029E+00  0.00000000E+00  0.00000000E+00
  2.63615029E+00  0.00000000E+00  2.28297312E+00  1.31807515E+00 -3.24930611E-32
  2.28297312E+00  1.31807515E+00 -3.24930611E-32  2.28297312E+00  1.31807515E+00
 -3.24930611E-32  2.28297312E+00  1.31807515E+00 -3.24930611E-32  2.28297312E+00
 -1.31807515E+00 -3.24930611E-32  2.28297312E+00 -1.31807515E+00 -3.24930611E-32
  2.28297312E+00 -1.31807515E+00 -3.24930611E-32  2.28297312E+00 -1.31807515E+00
 -3.24930611E-32 -2.92671475E-16 -2.63615029E+00 -1.62465305E-32 -2.92671475E-16
 -2.63615029E+00 -1.62465305E-32 -2.92671475E-16 -2.63615029E+00 -1.62465305E-32
 -2.92671475E-16 -2.63615029E+00 -1.62465305E-32 -2.28297312E+00 -1.31807515E+00
 -3.24930611E-32 -2.28297312E+00 -1.31807515E+00 -3.24930611E-32 -2.28297312E+00
 -1.31807515E+00 -3.24930611E-32 -2.28297312E+00 -1.31807515E+00 -3.24930611E-32
 -2.28297312E+00  1.31807515E+00  1.62465305E-32 -2.28297312E+00  1.31807515E+00
  1.62465305E-32 -2.28297312E+00  1.31807515E+00  1.62465305E-32 -2.28297312E+00
  1.31807515E+00  1.62465305E-32  0.00000000E+00  4.71411262E+00  0.00000000E+00
  0.00000000E+00  4.71411262E+00  0.00000000E+00  4.08254129E+00  2.35705631E+00
 -5.81059243E-32  4.08254129E+00  2.35705631E+00 -5.81059243E-32  4.08254129E+00
 -2.35705631E+00 -5.81059243E-32  4.08254129E+00 -2.35705631E+00 -5.81059243E-32
 -5.23371638E-16 -4.71411262E+00 -2.90529621E-32 -5.23371638E-16 -4.71411262E+00
 -2.90529621E-32 -4.08254129E+00 -2.35705631E+00 -5.81059243E-32 -4.08254129E+00
 -2.35705631E+00 -5.81059243E-32 -4.08254129E+00  2.35705631E+00  2.90529621E-32
 -4.08254129E+00  2.35705631E+00  2.90529621E-32
Num ILSW                                   I              100
ILSW                                       I   N=         100
           0           1           0           0           2           0
           0           0           0           0         402          -1
           5           0           0           0           0           0
           0           0           1           0           0           0
           1           0           0           0           0           0
           0           0      100000           0          -1           0
           0           0           0           0           0           0
           0           0           0           1           0           0
           0 -2000000000           1           0           0           0
           0           0           4          52           0           0
           0           0           5           0           0           0
           0           0           0           0           0           1
           0           0           0           0           0           0
           0           0           0           0           0           0
           0           0           0           0           0           0
           0           0           0           0           0           0
           0           0           0           0
Num RLSW                                   I               52
RLSW                                       R   N=          52
  8.00000000E-01  7.20000000E-01  1.00000000E+00  8.10000000E-01  2.00000000E-01
  0.00000000E+00  0.00000000E+00  1.00000000E+00  0.00000000E+00  0.00000000E+00
  0.00000000E+00  0.00000000E+00  1.00000000E+00  0.00000000E+00  0.00000000E+00
  0.00000000E+00  0.00000000E+00  1.00000000E+00  0.00000000E+00  0.00000000E+00
  0.00000000E+00  0.00000000E+00  1.00000000E+00  0.00000000E+00  0.00000000E+00
  0.00000000E+00  0.00000000E+00  1.00000000E+00  0.00000000E+00  0.00000000E+00
  0.00000000E+00  0.00000000E+00  1.00000000E+00  0.00000000E+00  0.00000000E+00
  0.00000000E+00  0.00000000E+00  0.00000000E+00  1.00000000E+00  1.00000000E+00
  0.00000000E+00  1.00000000E+00  0.00000000E+00  0.00000000E+00  0.00000000E+00
  0.00000000E+00  0.00000000E+00  0.00000000E+00  0.00000000E+00  0.00000000E+00
  0.00000000E+00  0.00000000E+00
MxBond                                     I                3
NBond                                      I   N=          12
           3           3           3           3           3           3
           1           1           1           1           1           1
IBond                                      I   N=          36
           2           6           7           1           3           8
           2           4           9           3           5          10
           4           6          11           1           5          12
           1           0           0           2           0           0
           3           0           0           4           0           0
           5           0           0           6           0           0
RBond                                      R   N=          36
  1.50000000E+00  1.50000000E+00  1.00000000E+00  1.50000000E+00  1.50000000E+00
  1.00000000E+00  1.50000000E+00  1.50000000E+00  1.00000000E+00  1.50000000E+00
  1.50000000E+00  1.00000000E+00  1.50000000E+00  1.50000000E+00  1.00000000E+00
  1.50000000E+00  1.50000000E+00  1.00000000E+00  1.00000000E+00  0.00000000E+00
  0.00000000E+00  1.00000000E+00  0.00000000E+00  0.00000000E+00  1.00000000E+00
  0.00000000E+00  0.00000000E+00  1.00000000E+00  0.00000000E+00  0.00000000E+00
  1.00000000E+00  0.00000000E+00  0.00000000E+00  1.00000000E+00  0.00000000E+00
  0.00000000E+00
Virial Ratio                               R      2.010440582323252E+00
SCF Energy                                 R     -2.322480396952563E+02
Total Energy                               R     -2.322480396952563E+02
RMS Density                                R      5.986614208357860E-09
Job Status                                 I                1
Nuclear derivative order                   I                0
External E-field                           R   N=          35
  0.00000000E+00  0.00000000E+00  0.00000000E+00  0.00000000E+00  0.00000000E+00
  0.00000000E+00  0.00000000E+00  0.00000000E+00  0.00000000E+00  0.00000000E+00
  0.00000000E+00  0.00000000E+00  0.00000000E+00  0.00000000E+00  0.00000000E+00
  0.00000000E+00  0.00000000E+00  0.00000000E+00  0.00000000E+00  0.00000000E+00
  0.00000000E+00  0.00000000E+00  0.00000000E+00  0.00000000E+00  0.00000000E+00
  0.00000000E+00  0.00000000E+00  0.00000000E+00  0.00000000E+00  0.00000000E+00
  0.00000000E+00  0.00000000E+00  0.00000000E+00  0.00000000E+00  0.00000000E+00
IOpCl                                      I                0
IROHF                                      I                0
Alpha Orbital Energies                     R   N=         102
 -1.01891478E+01 -1.01888800E+01 -1.01888800E+01 -1.01883217E+01 -1.01883217E+01
 -1.01880533E+01 -8.47354141E-01 -7.39637007E-01 -7.39637007E-01 -5.96188318E-01
 -5.96188318E-01 -5.16761880E-01 -4.55466217E-01 -4.39095883E-01 -4.16011783E-01
 -4.16011783E-01 -3.60435620E-01 -3.39342158E-01 -3.39342158E-01 -2.46938893E-01
 -2.46938893E-01  3.69136836E-03  3.69136836E-03  8.62193983E-02  1.41038733E-01
  1.41038733E-01  1.64618667E-01  1.79788115E-01  1.79788115E-01  1.86682517E-01
  3.02123627E-01  3.02123627E-01  3.20201427E-01  3.20201427E-01  4.74132840E-01
  5.26631002E-01  5.49145581E-01  5.51097026E-01  5.65448221E-01  5.93141843E-01
  6.01282454E-01  6.01282454E-01  6.01937603E-01  6.01937603E-01  6.25846496E-01
  6.25846496E-01  6.67093875E-01  6.67093875E-01  7.44495138E-01  8.31207085E-01
  8.31207085E-01  8.36511350E-01  8.56503485E-01  8.56503485E-01  9.32042220E-01
  9.39775213E-01  9.39775213E-01  9.58043896E-01  1.08480527E+00  1.08480527E+00
  1.14332608E+00  1.14332608E+00  1.20036083E+00  1.26129129E+00  1.39621937E+00
  1.43086601E+00  1.43086601E+00  1.48734200E+00  1.48734200E+00  1.51620467E+00
  1.51620467E+00  1.75301295E+00  1.79148280E+00  1.84552663E+00  1.88961297E+00
  1.95947842E+00  1.95947842E+00  2.06718637E+00  2.06718637E+00  2.15318249E+00
  2.15318249E+00  2.15613734E+00  2.15613734E+00  2.31070336E+00  2.31070336E+00
  2.32447165E+00  2.54137968E+00  2.54137968E+00  2.65974617E+00  2.70187288E+00
  2.70187288E+00  2.72426938E+00  2.72426938E+00  2.75517501E+00  3.01965331E+00
  3.40543274E+00  4.08375453E+00  4.11531778E+00  4.11531778E+00  4.32796435E+00
  4.32796435E+00  4.66421226E+00
Alpha MO coefficients                      R   N=       10404
  4.05133073E-01  1.97386884E-02  0.00000000E+00  1.18705158E-04  0.00000000E+00
 -2.53398227E-03  0.00000000E+00 -3.50581287E-04  0.00000000E+00 -4.02296460E-03
 -3.93859138E-03 -4.06182616E-03  0.00000000E+00  0.00000000E+00  0.00000000E+00
  4.05133073E-01  1.97386884E-02  1.02801682E-04  5.93525790E-05  0.00000000E+00
 -2.53398227E-03 -3.03612301E-04 -1.75290644E-04  0.00000000E+00 -3.95968468E-03
 -4.00187129E-03 -4.06182616E-03  4.21866109E-05  0.00000000E+00  0.00000000E+00
  4.05133073E-01  1.97386884E-02  1.02801682E-04 -5.93525790E-05  0.00000000E+00
 -2.53398227E-03 -3.03612301E-04  1.75290644E-04  0.00000000E+00 -3.95968468E-03
 -4.00187129E-03 -4.06182616E-03 -4.21866109E-05  0.00000000E+00  0.00000000E+00
  4.05133073E-01  1.97386884E-02  0.00000000E+00 -1.18705158E-04  0.00000000E+00
 -2.53398227E-03  0.00000000E+00  3.50581287E-04  0.00000000E+00 -4.02296460E-03
 -3.93859138E-03 -4.06182616E-03  0.00000000E+00  0.00000000E+00  0.00000000E+00
  4.05133073E-01  1.97386884E-02 -1.02801682E-04 -5.93525790E-05  0.00000000E+00
 -2.53398227E-03  3.03612301E-04  1.75290644E-04  0.00000000E+00 -3.95968468E-03
 -4.00187129E-03 -4.06182616E-03  4.21866109E-05  0.00000000E+00  0.00000000E+00
  4.05133073E-01  1.97386884E-02 -1.02801682E-04  5.93525790E-05  0.00000000E+00
 -2.53398227E-03  3.03612301E-04 -1.75290644E-04  0.00000000E+00 -3.95968468E-03
 -4.00187129E-03 -4.06182616E-03 -4.21866109E-05  0.00000000E+00  0.00000000E+00
 -1.86896269E-04  8.86853721E-04 -1.86896269E-04  8.86853721E-04 -1.86896269E-04
  8.86853721E-04 -1.86896269E-04  8.86853721E-04 -1.86896269E-04  8.86853721E-04
 -1.86896269E-04  8.86853721E-04  5.73079877E-01  2.84047144E-02  0.00000000E+00
 -4.93593802E-05  0.00000000E+00 -5.85498028E-03  0.00000000E+00  3.81569903E-04
  0.00000000E+00 -5.54387109E-03 -5.52634044E-03 -5.57133158E-03  0.00000000E+00
  0.00000000E+00  0.00000000E+00  2.86539939E-01  1.42023572E-02  1.08985624E-04
 -2.38128018E-04  0.00000000E+00 -2.92749014E-03 -5.07773824E-04  1.26105997E-03
  0.00000000E+00 -2.79237746E-03 -2.74272830E-03 -2.78566579E-03  2.23932665E-05
  0.00000000E+00  0.00000000E+00 -2.86539939E-01 -1.42023572E-02 -1.08985624E-04
 -2.38128018E-04  0.00000000E+00  2.92749014E-03  5.07773824E-04  1.26105997E-03
  0.00000000E+00  2.79237746E-03  2.74272830E-03  2.78566579E-03  2.23932665E-05
  0.00000000E+00  0.00000000E+00 -5.73079877E-01 -2.84047144E-02  0.00000000E+00
 -4.93593802E-05  0.00000000E+00  5.85498028E-03  0.00000000E+00  3.81569903E-04
  0.00000000E+00  5.54387109E-03  5.52634044E-03  5.57133158E-03  0.00000000E+00
  0.00000000E+00  0.00000000E+00 -2.86539939E-01 -1.42023572E-02  1.08985624E-04
 -2.38128018E-04  0.00000000E+00  2.92749014E-03 -5.07773824E-04  1.26105997E-03
  0.00000000E+00  2.79237746E-03  2.74272830E-03  2.78566579E-03 -2.23932665E-05
  0.00000000E+00  0.00000000E+00  2.86539939E-01  1.42023572E-02 -1.08985624E-04
 -2.38128018E-04  0.00000000E+00 -2.92749014E-03  5.07773824E-04  1.26105997E-03
  0.00000000E+00 -2.79237746E-03 -2.74272830E-03 -2.78566579E-03 -2.23932665E-05
  0.00000000E+00  0.00000000E+00 -2.37513335E-04  9.03428751E-04 -1.18756667E-04
  4.51714376E-04  1.18756667E-04 -4.51714376E-04  2.37513335E-04 -9.03428751E-04
  1.18756667E-04 -4.51714376E-04 -1.18756667E-04  4.51714376E-04  0.00000000E+00
  0.00000000E+00 -3.01050898E-04  0.00000000E+00  0.00000000E+00  0.00000000E+00
  1.55422332E-03  0.00000000E+00  0.00000000E+00  0.00000000E+00  0.00000000E+00
  0.00000000E+00  4.15937103E-05  0.00000000E+00  0.00000000E+00  4.96301732E-01
  2.45992043E-02 -1.12282260E-04  1.08985624E-04  0.00000000E+00 -5.07056166E-03
  6.74733257E-04 -5.07773824E-04  0.00000000E+00 -4.77414907E-03 -4.81293534E-03
 -4.82491468E-03 -2.80743494E-06  0.00000000E+00  0.00000000E+00  4.96301732E-01
  2.45992043E-02 -1.12282260E-04 -1.08985624E-04  0.00000000E+00 -5.07056166E-03
  6.74733257E-04  5.07773824E-04  0.00000000E+00 -4.77414907E-03 -4.81293534E-03
 -4.82491468E-03  2.80743494E-06  0.00000000E+00  0.00000000E+00  0.00000000E+00
  0.00000000E+00 -3.01050898E-04  0.00000000E+00  0.00000000E+00  0.00000000E+00
  1.55422332E-03  0.00000000E+00  0.00000000E+00  0.00000000E+00  0.00000000E+00
  0.00000000E+00 -4.15937103E-05  0.00000000E+00  0.00000000E+00 -4.96301732E-01
 -2.45992043E-02 -1.12282260E-04  1.08985624E-04  0.00000000E+00  5.07056166E-03
  6.74733257E-04 -5.07773824E-04  0.00000000E+00  4.77414907E-03  4.81293534E-03
  4.82491468E-03  2.80743494E-06  0.00000000E+00  0.00000000E+00 -4.96301732E-01
 -2.45992043E-02 -1.12282260E-04 -1.08985624E-04  0.00000000E+00  5.07056166E-03
  6.74733257E-04  5.07773824E-04  0.00000000E+00  4.77414907E-03  4.81293534E-03
  4.82491468E-03 -2.80743494E-06  0.00000000E+00  0.00000000E+00  0.00000000E+00
  0.00000000E+00 -2.05692582E-04  7.82392249E-04 -2.05692582E-04  7.82392249E-04
  0.00000000E+00  0.00000000E+00  2.05692582E-04 -7.82392249E-04  2.05692582E-04
 -7.82392249E-04  5.73298184E-01  2.88708718E-02  0.00000000E+00 -2.69438075E-04
  0.00000000E+00 -1.15090904E-02  0.00000000E+00  2.42867753E-03  0.00000000E+00
 -5.02267248E-03 -5.27441055E-03 -5.43824626E-03  0.00000000E+00  0.00000000E+00
  0.00000000E+00 -2.86649092E-01 -1.44354359E-02  2.18731957E-04 -1.09416786E-04
  0.00000000E+00  5.75454518E-03 -1.68571326E-03  4.91063486E-04  0.00000000E+00
  2.52717940E-03  2.62136211E-03  2.71912313E-03  1.15306927E-04  0.00000000E+00
  0.00000000E+00 -2.86649092E-01 -1.44354359E-02  2.18731957E-04  1.09416786E-04
  0.00000000E+00  5.75454518E-03 -1.68571326E-03 -4.91063486E-04  0.00000000E+00
  2.52717940E-03  2.62136211E-03  2.71912313E-03 -1.15306927E-04  0.00000000E+00
  0.00000000E+00  5.73298184E-01  2.88708718E-02  0.00000000E+00  2.69438075E-04
  0.00000000E+00 -1.15090904E-02  0.00000000E+00 -2.42867753E-03  0.00000000E+00
 -5.02267248E-03 -5.27441055E-03 -5.43824626E-03  0.00000000E+00  0.00000000E+00
  0.00000000E+00 -2.86649092E-01 -1.44354359E-02 -2.18731957E-04  1.09416786E-04
  0.00000000E+00  5.75454518E-03  1.68571326E-03 -4.91063486E-04  0.00000000E+00
  2.52717940E-03  2.62136211E-03  2.71912313E-03  1.15306927E-04  0.00000000E+00
  0.00000000E+00 -2.86649092E-01 -1.44354359E-02 -2.18731957E-04 -1.09416786E-04
  0.00000000E+00  5.75454518E-03  1.68571326E-03  4.91063486E-04  0.00000000E+00
  2.52717940E-03  2.62136211E-03  2.71912313E-03 -1.15306927E-04  0.00000000E+00
  0.00000000E+00 -2.05725468E-04  6.39508770E-04  1.02862734E-04 -3.19754385E-04
  1.02862734E-04 -3.19754385E-04 -2.05725468E-04  6.39508770E-04  1.02862734E-04
 -3.19754385E-04  1.02862734E-04 -3.19754385E-04  0.00000000E+00  0.00000000E+00
 -2.35701740E-04  0.00000000E+00  0.00000000E+00  0.00000000E+00  1.46431049E-03
  0.00000000E+00  0.00000000E+00  0.00000000E+00  0.00000000E+00  0.00000000E+00
  1.20948899E-04  0.00000000E+00  0.00000000E+00  4.96490791E-01  2.50029084E-02
 -1.43153121E-04 -2.18731957E-04  0.00000000E+00 -9.96716462E-03  1.45543053E-03
  1.68571326E-03  0.00000000E+00 -4.55862647E-03 -4.35890902E-03 -4.70965942E-03
 -7.87685575E-05  0.00000000E+00  0.00000000E+00 -4.96490791E-01 -2.50029084E-02
  1.43153121E-04 -2.18731957E-04  0.00000000E+00  9.96716462E-03 -1.45543053E-03
  1.68571326E-03  0.00000000E+00  4.55862647E-03  4.35890902E-03  4.70965942E-03
 -7.87685575E-05  0.00000000E+00  0.00000000E+00  0.00000000E+00  0.00000000E+00
  2.35701740E-04  0.00000000E+00  0.00000000E+00  0.00000000E+00 -1.46431049E-03
  0.00000000E+00  0.00000000E+00  0.00000000E+00  0.00000000E+00  0.00000000E+00
  1.20948899E-04  0.00000000E+00  0.00000000E+00  4.96490791E-01  2.50029084E-02
  1.43153121E-04  2.18731957E-04  0.00000000E+00 -9.96716462E-03 -1.45543053E-03
 -1.68571326E-03  0.00000000E+00 -4.55862647E-03 -4.35890902E-03 -4.70965942E-03
 -7.87685575E-05  0.00000000E+00  0.00000000E+00 -4.96490791E-01 -2.50029084E-02
 -1.43153121E-04  2.18731957E-04  0.00000000E+00  9.96716462E-03  1.45543053E-03
 -1.68571326E-03  0.00000000E+00  4.55862647E-03  4.35890902E-03  4.70965942E-03
 -7.87685575E-05  0.00000000E+00  0.00000000E+00  0.00000000E+00  0.00000000E+00
 -1.78163481E-04  5.53830841E-04  1.78163481E-04 -5.53830841E-04  0.00000000E+00
  0.00000000E+00 -1.78163481E-04  5.53830841E-04  1.78163481E-04 -5.53830841E-04
  4.05563165E-01  2.10485408E-02  0.00000000E+00 -2.81271293E-04  0.00000000E+00
 -2.04359242E-02  0.00000000E+00  8.46189810E-03  0.00000000E+00 -3.31675644E-03
 -3.54011530E-03 -3.62734642E-03  0.00000000E+00  0.00000000E+00  0.00000000E+00