Title Card Required                                                     
FOpt      RB3LYP                                                      6-31G(d)            
Number of atoms                            I               22
Info1-9                                    I   N=           9
          30          29           0           0           0         110
           2          18        -502
Charge                                     I                0
Multiplicity                               I                1
Number of electrons                        I               82
Number of alpha electrons                  I               41
Number of beta electrons                   I               41
Number of basis functions                  I              200
Number of independent functions            I              200
Number of point charges in /Mol/           I                0
Number of translation vectors              I                0
Atomic numbers                             I   N=          22
           6           6           6           6           6           6
           1           1           1           1           1           6
           6           6           6           1           6           1
           6           1           1           1
Nuclear charges                            R   N=          22
  6.00000000E+00  6.00000000E+00  6.00000000E+00  6.00000000E+00  6.00000000E+00
  6.00000000E+00  1.00000000E+00  1.00000000E+00  1.00000000E+00  1.00000000E+00
  1.00000000E+00  6.00000000E+00  6.00000000E+00  6.00000000E+00  6.00000000E+00
  1.00000000E+00  6.00000000E+00  1.00000000E+00  6.00000000E+00  1.00000000E+00
  1.00000000E+00  1.00000000E+00
Current cartesian coordinates              R   N=          66
  2.81339017E-15  6.63425311E-17 -6.73447516E+00 -7.48290972E-01  2.15187120E+00
 -5.40427478E+00 -7.49020820E-01  2.15060079E+00 -2.76981316E+00 -2.96791894E-16
 -8.16118950E-17 -1.40385517E+00  7.49020820E-01 -2.15060079E+00 -2.76981316E+00
  7.48290972E-01 -2.15187120E+00 -5.40427478E+00  4.01152174E-15  1.23338831E-16
 -8.78798326E+00 -1.35012911E+00  3.83301098E+00 -6.41955021E+00 -1.38390016E+00
  3.81830943E+00 -1.75421309E+00  1.38390016E+00 -3.81830943E+00 -1.75421309E+00
  1.35012911E+00 -3.83301098E+00 -6.41955021E+00 -2.10688426E-15 -1.59541512E-16
  1.40385517E+00 -7.49020820E-01 -2.15060079E+00  2.76981316E+00  7.49020820E-01
  2.15060079E+00  2.76981316E+00 -7.48290972E-01 -2.15187120E+00  5.40427478E+00
 -1.38390016E+00 -3.81830943E+00  1.75421309E+00  7.48290972E-01  2.15187120E+00
  5.40427478E+00  1.38390016E+00  3.81830943E+00  1.75421309E+00 -5.86985744E-15
 -3.07495938E-16  6.73447516E+00 -1.35012911E+00 -3.83301098E+00  6.41955021E+00
  1.35012911E+00  3.83301098E+00  6.41955021E+00 -7.31946291E-15 -3.64492237E-16
  8.78798326E+00
Force Field                                I                0
Int Atom Types                             I   N=          22
           0           0           0           0           0           0
           0           0           0           0           0           0
           0           0           0           0           0           0
           0           0           0           0
MM charges                                 R   N=          22
  0.00000000E+00  0.00000000E+00  0.00000000E+00  0.00000000E+00  0.00000000E+00
  0.00000000E+00  0.00000000E+00  0.00000000E+00  0.00000000E+00  0.00000000E+00
  0.00000000E+00  0.00000000E+00  0.00000000E+00  0.00000000E+00  0.00000000E+00
  0.00000000E+00  0.00000000E+00  0.00000000E+00  0.00000000E+00  0.00000000E+00
  0.00000000E+00  0.00000000E+00
Integer atomic weights                     I   N=          22
          12          12          12          12          12          12
           1           1           1           1           1          12
          12          12          12           1          12           1
          12           1           1           1
Real atomic weights                        R   N=          22
  1.20000000E+01  1.20000000E+01  1.20000000E+01  1.20000000E+01  1.20000000E+01
  1.20000000E+01  1.00782504E+00  1.00782504E+00  1.00782504E+00  1.00782504E+00
  1.00782504E+00  1.20000000E+01  1.20000000E+01  1.20000000E+01  1.20000000E+01
  1.00782504E+00  1.20000000E+01  1.00782504E+00  1.20000000E+01  1.00782504E+00
  1.00782504E+00  1.00782504E+00
Atom fragment info                         I   N=          22
           0           0           0           0           0           0
           0           0           0           0           0           0
           0           0           0           0           0           0
           0           0           0           0
Atom residue num                           I   N=          22
           0           0           0           0           0           0
           0           0           0           0           0           0
           0           0           0           0           0           0
           0           0           0           0
Nuclear spins                              I   N=          22
           0           0           0           0           0           0
           1           1           1           1           1           0
           0           0           0           1           0           1
           0           1           1           1
Nuclear ZEff                               R   N=          22
 -3.60000000E+00 -3.60000000E+00 -3.60000000E+00 -3.60000000E+00 -3.60000000E+00
 -3.60000000E+00 -1.00000000E+00 -1.00000000E+00 -1.00000000E+00 -1.00000000E+00
 -1.00000000E+00 -3.60000000E+00 -3.60000000E+00 -3.60000000E+00 -3.60000000E+00
 -1.00000000E+00 -3.60000000E+00 -1.00000000E+00 -3.60000000E+00 -1.00000000E+00
 -1.00000000E+00 -1.00000000E+00
Nuclear ZNuc                               R   N=          22
  6.00000000E+00  6.00000000E+00  6.00000000E+00  6.00000000E+00  6.00000000E+00
  6.00000000E+00  1.00000000E+00  1.00000000E+00  1.00000000E+00  1.00000000E+00
  1.00000000E+00  6.00000000E+00  6.00000000E+00  6.00000000E+00  6.00000000E+00
  1.00000000E+00  6.00000000E+00  1.00000000E+00  6.00000000E+00  1.00000000E+00
  1.00000000E+00  1.00000000E+00
Nuclear QMom                               R   N=          22
  0.00000000E+00  0.00000000E+00  0.00000000E+00  0.00000000E+00  0.00000000E+00
  0.00000000E+00  0.00000000E+00  0.00000000E+00  0.00000000E+00  0.00000000E+00
  0.00000000E+00  0.00000000E+00  0.00000000E+00  0.00000000E+00  0.00000000E+00
  0.00000000E+00  0.00000000E+00  0.00000000E+00  0.00000000E+00  0.00000000E+00
  0.00000000E+00  0.00000000E+00
Nuclear GFac                               R   N=          22
  0.00000000E+00  0.00000000E+00  0.00000000E+00  0.00000000E+00  0.00000000E+00
  0.00000000E+00  2.79284600E+00  2.79284600E+00  2.79284600E+00  2.79284600E+00
  2.79284600E+00  0.00000000E+00  0.00000000E+00  0.00000000E+00  0.00000000E+00
  2.79284600E+00  0.00000000E+00  2.79284600E+00  0.00000000E+00  2.79284600E+00
  2.79284600E+00  2.79284600E+00
MicOpt                                     I   N=          22
          -1          -1          -1          -1          -1          -1
          -1          -1          -1          -1          -1          -1
          -1          -1          -1          -1          -1          -1
          -1          -1          -1          -1
Number of contracted shells                I               68
Number of primitive shells                 I              172
Pure/Cartesian d shells                    I                1
Pure/Cartesian f shells                    I                0
Highest angular momentum                   I                2
Largest degree of contraction              I                6
Shell types                                I   N=          68
           0          -1          -1           2           0          -1
          -1           2           0          -1          -1           2
           0          -1          -1           2           0          -1
          -1           2           0          -1          -1           2
           0           0           0           0           0           0
           0           0           0           0           0          -1
          -1           2           0          -1          -1           2
           0          -1          -1           2           0          -1
          -1           2           0           0           0          -1
          -1           2           0           0           0          -1
          -1           2           0           0           0           0
           0           0
Number of primitives per shell             I   N=          68
           6           3           1           1           6           3
           1           1           6           3           1           1
           6           3           1           1           6           3
           1           1           6           3           1           1
           3           1           3           1           3           1
           3           1           3           1           6           3
           1           1           6           3           1           1
           6           3           1           1           6           3
           1           1           3           1           6           3
           1           1           3           1           6           3
           1           1           3           1           3           1
           3           1
Shell to atom map                          I   N=          68
           1           1           1           1           2           2
           2           2           3           3           3           3
           4           4           4           4           5           5
           5           5           6           6           6           6
           7           7           8           8           9           9
          10          10          11          11          12          12
          12          12          13          13          13          13
          14          14          14          14          15          15
          15          15          16          16          17          17
          17          17          18          18          19          19
          19          19          20          20          21          21
          22          22
Primitive exponents                        R   N=         172
  3.04752488E+03  4.57369518E+02  1.03948685E+02  2.92101553E+01  9.28666296E+00
  3.16392696E+00  7.86827235E+00  1.88128854E+00  5.44249258E-01  1.68714478E-01
  8.00000000E-01  3.04752488E+03  4.57369518E+02  1.03948685E+02  2.92101553E+01
  9.28666296E+00  3.16392696E+00  7.86827235E+00  1.88128854E+00  5.44249258E-01
  1.68714478E-01  8.00000000E-01  3.04752488E+03  4.57369518E+02  1.03948685E+02
  2.92101553E+01  9.28666296E+00  3.16392696E+00  7.86827235E+00  1.88128854E+00
  5.44249258E-01  1.68714478E-01  8.00000000E-01  3.04752488E+03  4.57369518E+02
  1.03948685E+02  2.92101553E+01  9.28666296E+00  3.16392696E+00  7.86827235E+00
  1.88128854E+00  5.44249258E-01  1.68714478E-01  8.00000000E-01  3.04752488E+03
  4.57369518E+02  1.03948685E+02  2.92101553E+01  9.28666296E+00  3.16392696E+00
  7.86827235E+00  1.88128854E+00  5.44249258E-01  1.68714478E-01  8.00000000E-01
  3.04752488E+03  4.57369518E+02  1.03948685E+02  2.92101553E+01  9.28666296E+00
  3.16392696E+00  7.86827235E+00  1.88128854E+00  5.44249258E-01  1.68714478E-01
  8.00000000E-01  1.87311370E+01  2.82539436E+00  6.40121692E-01  1.61277759E-01
  1.87311370E+01  2.82539436E+00  6.40121692E-01  1.61277759E-01  1.87311370E+01
  2.82539436E+00  6.40121692E-01  1.61277759E-01  1.87311370E+01  2.82539436E+00
  6.40121692E-01  1.61277759E-01  1.87311370E+01  2.82539436E+00  6.40121692E-01
  1.61277759E-01  3.04752488E+03  4.57369518E+02  1.03948685E+02  2.92101553E+01
  9.28666296E+00  3.16392696E+00  7.86827235E+00  1.88128854E+00  5.44249258E-01
  1.68714478E-01  8.00000000E-01  3.04752488E+03  4.57369518E+02  1.03948685E+02
  2.92101553E+01  9.28666296E+00  3.16392696E+00  7.86827235E+00  1.88128854E+00
  5.44249258E-01  1.68714478E-01  8.00000000E-01  3.04752488E+03  4.57369518E+02
  1.03948685E+02  2.92101553E+01  9.28666296E+00  3.16392696E+00  7.86827235E+00
  1.88128854E+00  5.44249258E-01  1.68714478E-01  8.00000000E-01  3.04752488E+03
  4.57369518E+02  1.03948685E+02  2.92101553E+01  9.28666296E+00  3.16392696E+00
  7.86827235E+00  1.88128854E+00  5.44249258E-01  1.68714478E-01  8.00000000E-01
  1.87311370E+01  2.82539436E+00  6.40121692E-01  1.61277759E-01  3.04752488E+03
  4.57369518E+02  1.03948685E+02  2.92101553E+01  9.28666296E+00  3.16392696E+00
  7.86827235E+00  1.88128854E+00  5.44249258E-01  1.68714478E-01  8.00000000E-01
  1.87311370E+01  2.82539436E+00  6.40121692E-01  1.61277759E-01  3.04752488E+03
  4.57369518E+02  1.03948685E+02  2.92101553E+01  9.28666296E+00  3.16392696E+00
  7.86827235E+00  1.88128854E+00  5.44249258E-01  1.68714478E-01  8.00000000E-01
  1.87311370E+01  2.82539436E+00  6.40121692E-01  1.61277759E-01  1.87311370E+01
  2.82539436E+00  6.40121692E-01  1.61277759E-01  1.87311370E+01  2.82539436E+00
  6.40121692E-01  1.61277759E-01
Contraction coefficients                   R   N=         172
  1.83473713E-03  1.40373228E-02  6.88426223E-02  2.32184443E-01  4.67941348E-01
  3.62311985E-01 -1.19332420E-01 -1.60854152E-01  1.14345644E+00  1.00000000E+00
  1.00000000E+00  1.83473713E-03  1.40373228E-02  6.88426223E-02  2.32184443E-01
  4.67941348E-01  3.62311985E-01 -1.19332420E-01 -1.60854152E-01  1.14345644E+00
  1.00000000E+00  1.00000000E+00  1.83473713E-03  1.40373228E-02  6.88426223E-02
  2.32184443E-01  4.67941348E-01  3.62311985E-01 -1.19332420E-01 -1.60854152E-01
  1.14345644E+00  1.00000000E+00  1.00000000E+00  1.83473713E-03  1.40373228E-02
  6.88426223E-02  2.32184443E-01  4.67941348E-01  3.62311985E-01 -1.19332420E-01
 -1.60854152E-01  1.14345644E+00  1.00000000E+00  1.00000000E+00  1.83473713E-03
  1.40373228E-02  6.88426223E-02  2.32184443E-01  4.67941348E-01  3.62311985E-01
 -1.19332420E-01 -1.60854152E-01  1.14345644E+00  1.00000000E+00  1.00000000E+00
  1.83473713E-03  1.40373228E-02  6.88426223E-02  2.32184443E-01  4.67941348E-01
  3.62311985E-01 -1.19332420E-01 -1.60854152E-01  1.14345644E+00  1.00000000E+00
  1.00000000E+00  3.34946043E-02  2.34726953E-01  8.13757326E-01  1.00000000E+00
  3.34946043E-02  2.34726953E-01  8.13757326E-01  1.00000000E+00  3.34946043E-02
  2.34726953E-01  8.13757326E-01  1.00000000E+00  3.34946043E-02  2.34726953E-01
  8.13757326E-01  1.00000000E+00  3.34946043E-02  2.34726953E-01  8.13757326E-01
  1.00000000E+00  1.83473713E-03  1.40373228E-02  6.88426223E-02  2.32184443E-01
  4.67941348E-01  3.62311985E-01 -1.19332420E-01 -1.60854152E-01  1.14345644E+00
  1.00000000E+00  1.00000000E+00  1.83473713E-03  1.40373228E-02  6.88426223E-02
  2.32184443E-01  4.67941348E-01  3.62311985E-01 -1.19332420E-01 -1.60854152E-01
  1.14345644E+00  1.00000000E+00  1.00000000E+00  1.83473713E-03  1.40373228E-02
  6.88426223E-02  2.32184443E-01  4.67941348E-01  3.62311985E-01 -1.19332420E-01
 -1.60854152E-01  1.14345644E+00  1.00000000E+00  1.00000000E+00  1.83473713E-03
  1.40373228E-02  6.88426223E-02  2.32184443E-01  4.67941348E-01  3.62311985E-01
 -1.19332420E-01 -1.60854152E-01  1.14345644E+00  1.00000000E+00  1.00000000E+00
  3.34946043E-02  2.34726953E-01  8.13757326E-01  1.00000000E+00  1.83473713E-03
  1.40373228E-02  6.88426223E-02  2.32184443E-01  4.67941348E-01  3.62311985E-01
 -1.19332420E-01 -1.60854152E-01  1.14345644E+00  1.00000000E+00  1.00000000E+00
  3.34946043E-02  2.34726953E-01  8.13757326E-01  1.00000000E+00  1.83473713E-03
  1.40373228E-02  6.88426223E-02  2.32184443E-01  4.67941348E-01  3.62311985E-01
 -1.19332420E-01 -1.60854152E-01  1.14345644E+00  1.00000000E+00  1.00000000E+00
  3.34946043E-02  2.34726953E-01  8.13757326E-01  1.00000000E+00  3.34946043E-02
  2.34726953E-01  8.13757326E-01  1.00000000E+00  3.34946043E-02  2.34726953E-01
  8.13757326E-01  1.00000000E+00
P(S=P) Contraction coefficients            R   N=         172
  0.00000000E+00  0.00000000E+00  0.00000000E+00  0.00000000E+00  0.00000000E+00
  0.00000000E+00  6.89990666E-02  3.16423961E-01  7.44308291E-01  1.00000000E+00
  0.00000000E+00  0.00000000E+00  0.00000000E+00  0.00000000E+00  0.00000000E+00
  0.00000000E+00  0.00000000E+00  6.89990666E-02  3.16423961E-01  7.44308291E-01
  1.00000000E+00  0.00000000E+00  0.00000000E+00  0.00000000E+00  0.00000000E+00
  0.00000000E+00  0.00000000E+00  0.00000000E+00  6.89990666E-02  3.16423961E-01
  7.44308291E-01  1.00000000E+00  0.00000000E+00  0.00000000E+00  0.00000000E+00
  0.00000000E+00  0.00000000E+00  0.00000000E+00  0.00000000E+00  6.89990666E-02
  3.16423961E-01  7.44308291E-01  1.00000000E+00  0.00000000E+00  0.00000000E+00
  0.00000000E+00  0.00000000E+00  0.00000000E+00  0.00000000E+00  0.00000000E+00
  6.89990666E-02  3.16423961E-01  7.44308291E-01  1.00000000E+00  0.00000000E+00
  0.00000000E+00  0.00000000E+00  0.00000000E+00  0.00000000E+00  0.00000000E+00
  0.00000000E+00  6.89990666E-02  3.16423961E-01  7.44308291E-01  1.00000000E+00
  0.00000000E+00  0.00000000E+00  0.00000000E+00  0.00000000E+00  0.00000000E+00
  0.00000000E+00  0.00000000E+00  0.00000000E+00  0.00000000E+00  0.00000000E+00
  0.00000000E+00  0.00000000E+00  0.00000000E+00  0.00000000E+00  0.00000000E+00
  0.00000000E+00  0.00000000E+00  0.00000000E+00  0.00000000E+00  0.00000000E+00
  0.00000000E+00  0.00000000E+00  0.00000000E+00  0.00000000E+00  0.00000000E+00
  0.00000000E+00  0.00000000E+00  6.89990666E-02  3.16423961E-01  7.44308291E-01
  1.00000000E+00  0.00000000E+00  0.00000000E+00  0.00000000E+00  0.00000000E+00
  0.00000000E+00  0.00000000E+00  0.00000000E+00  6.89990666E-02  3.16423961E-01
  7.44308291E-01  1.00000000E+00  0.00000000E+00  0.00000000E+00  0.00000000E+00
  0.00000000E+00  0.00000000E+00  0.00000000E+00  0.00000000E+00  6.89990666E-02
  3.16423961E-01  7.44308291E-01  1.00000000E+00  0.00000000E+00  0.00000000E+00
  0.00000000E+00  0.00000000E+00  0.00000000E+00  0.00000000E+00  0.00000000E+00
  6.89990666E-02  3.16423961E-01  7.44308291E-01  1.00000000E+00  0.00000000E+00
  0.00000000E+00  0.00000000E+00  0.00000000E+00  0.00000000E+00  0.00000000E+00
  0.00000000E+00  0.00000000E+00  0.00000000E+00  0.00000000E+00  0.00000000E+00
  6.89990666E-02  3.16423961E-01  7.44308291E-01  1.00000000E+00  0.00000000E+00
  0.00000000E+00  0.00000000E+00  0.00000000E+00  0.00000000E+00  0.00000000E+00
  0.00000000E+00  0.00000000E+00  0.00000000E+00  0.00000000E+00  0.00000000E+00
  6.89990666E-02  3.16423961E-01  7.44308291E-01  1.00000000E+00  0.00000000E+00
  0.00000000E+00  0.00000000E+00  0.00000000E+00  0.00000000E+00  0.00000000E+00
  0.00000000E+00  0.00000000E+00  0.00000000E+00  0.00000000E+00  0.00000000E+00
  0.00000000E+00  0.00000000E+00
Coordinates of each shell                  R   N=         204
 -3.94430453E-31  2.99520625E-30 -6.73447516E+00 -3.94430453E-31  2.99520625E-30
 -6.73447516E+00 -3.94430453E-31  2.99520625E-30 -6.73447516E+00 -3.94430453E-31
  2.99520625E-30 -6.73447516E+00 -7.48290972E-01  2.15187120E+00 -5.40427478E+00
 -7.48290972E-01  2.15187120E+00 -5.40427478E+00 -7.48290972E-01  2.15187120E+00
 -5.40427478E+00 -7.48290972E-01  2.15187120E+00 -5.40427478E+00 -7.49020820E-01
  2.15060079E+00 -2.76981316E+00 -7.49020820E-01  2.15060079E+00 -2.76981316E+00
 -7.49020820E-01  2.15060079E+00 -2.76981316E+00 -7.49020820E-01  2.15060079E+00
 -2.76981316E+00  0.00000000E+00  6.25542046E-31 -1.40385517E+00  0.00000000E+00
  6.25542046E-31 -1.40385517E+00  0.00000000E+00  6.25542046E-31 -1.40385517E+00
  0.00000000E+00  6.25542046E-31 -1.40385517E+00  7.49020820E-01 -2.15060079E+00
 -2.76981316E+00  7.49020820E-01 -2.15060079E+00 -2.76981316E+00  7.49020820E-01
 -2.15060079E+00 -2.76981316E+00  7.49020820E-01 -2.15060079E+00 -2.76981316E+00
  7.48290972E-01 -2.15187120E+00 -5.40427478E+00  7.48290972E-01 -2.15187120E+00
 -5.40427478E+00  7.48290972E-01 -2.15187120E+00 -5.40427478E+00  7.48290972E-01
 -2.15187120E+00 -5.40427478E+00  0.00000000E+00  3.91348965E-30 -8.78798326E+00
  0.00000000E+00  3.91348965E-30 -8.78798326E+00 -1.35012911E+00  3.83301098E+00
 -6.41955021E+00 -1.35012911E+00  3.83301098E+00 -6.41955021E+00 -1.38390016E+00
  3.81830943E+00 -1.75421309E+00 -1.38390016E+00  3.81830943E+00 -1.75421309E+00
  1.38390016E+00 -3.81830943E+00 -1.75421309E+00  1.38390016E+00 -3.81830943E+00
 -1.75421309E+00  1.35012911E+00 -3.83301098E+00 -6.41955021E+00  1.35012911E+00
 -3.83301098E+00 -6.41955021E+00 -1.71916996E-16 -4.62223187E-33  1.40385517E+00
 -1.71916996E-16 -4.62223187E-33  1.40385517E+00 -1.71916996E-16 -4.62223187E-33
  1.40385517E+00 -1.71916996E-16 -4.62223187E-33  1.40385517E+00 -7.49020820E-01
 -2.15060079E+00  2.76981316E+00 -7.49020820E-01 -2.15060079E+00  2.76981316E+00
 -7.49020820E-01 -2.15060079E+00  2.76981316E+00 -7.49020820E-01 -2.15060079E+00
  2.76981316E+00  7.49020820E-01  2.15060079E+00  2.76981316E+00  7.49020820E-01
  2.15060079E+00  2.76981316E+00  7.49020820E-01  2.15060079E+00  2.76981316E+00
  7.49020820E-01  2.15060079E+00  2.76981316E+00 -7.48290972E-01 -2.15187120E+00
  5.40427478E+00 -7.48290972E-01 -2.15187120E+00  5.40427478E+00 -7.48290972E-01
 -2.15187120E+00  5.40427478E+00 -7.48290972E-01 -2.15187120E+00  5.40427478E+00
 -1.38390016E+00 -3.81830943E+00  1.75421309E+00 -1.38390016E+00 -3.81830943E+00
  1.75421309E+00  7.48290972E-01  2.15187120E+00  5.40427478E+00  7.48290972E-01
  2.15187120E+00  5.40427478E+00  7.48290972E-01  2.15187120E+00  5.40427478E+00
  7.48290972E-01  2.15187120E+00  5.40427478E+00  1.38390016E+00  3.81830943E+00
  1.75421309E+00  1.38390016E+00  3.81830943E+00  1.75421309E+00 -8.24708107E-16
 -6.16297582E-33  6.73447516E+00 -8.24708107E-16 -6.16297582E-33  6.73447516E+00
 -8.24708107E-16 -6.16297582E-33  6.73447516E+00 -8.24708107E-16 -6.16297582E-33
  6.73447516E+00 -1.35012911E+00 -3.83301098E+00  6.41955021E+00 -1.35012911E+00
 -3.83301098E+00  6.41955021E+00  1.35012911E+00  3.83301098E+00  6.41955021E+00
  1.35012911E+00  3.83301098E+00  6.41955021E+00 -1.07618201E-15  1.23259516E-32
  8.78798326E+00 -1.07618201E-15  1.23259516E-32  8.78798326E+00
Constraint Structure                       R   N=          66
  0.00000000E+00 -6.16297582E-33 -6.69991315E+00 -7.93796866E-01  2.12553310E+00
 -5.37642609E+00 -7.93063596E-01  2.12478731E+00 -2.75299372E+00  0.00000000E+00
 -1.54074396E-33 -1.39698428E+00  7.93063596E-01 -2.12478731E+00 -2.75299372E+00
  7.93796866E-01 -2.12553310E+00 -5.37642609E+00 -9.86076132E-32 -1.23259516E-32
 -8.75151275E+00 -1.43375389E+00  3.79002995E+00 -6.39191213E+00 -1.46557720E+00
  3.77533181E+00 -1.73537805E+00  1.46557720E+00 -3.77533181E+00 -1.73537805E+00
  1.43375389E+00 -3.79002995E+00 -6.39191213E+00 -1.71075582E-16 -1.54074396E-33
  1.39698428E+00 -7.93063596E-01 -2.12478731E+00  2.75299372E+00  7.93063596E-01
  2.12478731E+00  2.75299372E+00 -7.93796866E-01 -2.12553310E+00  5.37642609E+00
 -1.46557720E+00 -3.77533181E+00  1.73537805E+00  7.93796866E-01  2.12553310E+00
  5.37642609E+00  1.46557720E+00  3.77533181E+00  1.73537805E+00 -8.20475622E-16
  0.00000000E+00  6.69991315E+00 -1.43375389E+00 -3.79002995E+00  6.39191213E+00
  1.43375389E+00  3.79002995E+00  6.39191213E+00 -1.07171581E-15 -1.23259516E-32
  8.75151275E+00
Num ILSW                                   I              100
ILSW                                       I   N=         100
           0           1           0           0           2           0
           0           0           0           0         402          -1
           0           0           0           0           2           0
           0           0           1           0           1           0
           1           0           0           0           0           0
           0           0      100000           0          -1           0
           0           0           0           0           0           0
           0           0           0           1           0           0
           0           0           1           0           0           0
           0           0           4          41           0           0
           0           0           5           0           0           0
           0           0           0           0           0           0
           0           0           0           0           0           0
           0           0           0           0           0           0
           0           0           0           0           0           0
           0           0           0           0           0           0
           0           0           0           0
Num RLSW                                   I               41
RLSW                                       R   N=          41
  8.00000000E-01  7.20000000E-01  1.00000000E+00  8.10000000E-01  2.00000000E-01
  0.00000000E+00  0.00000000E+00  1.00000000E+00  0.00000000E+00  0.00000000E+00
  0.00000000E+00  0.00000000E+00  1.00000000E+00  0.00000000E+00  0.00000000E+00
  0.00000000E+00  0.00000000E+00  1.00000000E+00  0.00000000E+00  0.00000000E+00
  0.00000000E+00  0.00000000E+00  1.00000000E+00  0.00000000E+00  0.00000000E+00
  0.00000000E+00  0.00000000E+00  1.00000000E+00  0.00000000E+00  0.00000000E+00
  0.00000000E+00  0.00000000E+00  1.00000000E+00  0.00000000E+00  0.00000000E+00
  0.00000000E+00  0.00000000E+00  0.00000000E+00  1.00000000E+00  1.00000000E+00
  0.00000000E+00
MxBond                                     I                3
NBond                                      I   N=          22
           3           3           3           3           3           3
           1           1           1           1           1           3
           3           3           3           1           3           1
           3           1           1           1
IBond                                      I   N=          66
           2           6           7           1           3           8
           2           4           9           3           5          12
           4           6          10           1           5          11
           1           0           0           2           0           0
           3           0           0           5           0           0
           6           0           0           4          13          14
          12          15          16          12          17          18
          13          19          20          13           0           0
          14          19          21          14           0           0
          15          17          22          15           0           0
          17           0           0          19           0           0
RBond                                      R   N=          66
  1.50000000E+00  1.50000000E+00  1.00000000E+00  1.50000000E+00  1.50000000E+00
  1.00000000E+00  1.50000000E+00  1.50000000E+00  1.00000000E+00  1.50000000E+00
  1.50000000E+00  1.00000000E+00  1.50000000E+00  1.50000000E+00  1.00000000E+00
  1.50000000E+00  1.50000000E+00  1.00000000E+00  1.00000000E+00  0.00000000E+00
  0.00000000E+00  1.00000000E+00  0.00000000E+00  0.00000000E+00  1.00000000E+00
  0.00000000E+00  0.00000000E+00  1.00000000E+00  0.00000000E+00  0.00000000E+00
  1.00000000E+00  0.00000000E+00  0.00000000E+00  1.00000000E+00  1.50000000E+00
  1.50000000E+00  1.50000000E+00  1.50000000E+00  1.00000000E+00  1.50000000E+00
  1.50000000E+00  1.00000000E+00  1.50000000E+00  1.50000000E+00  1.00000000E+00
  1.00000000E+00  0.00000000E+00  0.00000000E+00  1.50000000E+00  1.50000000E+00
  1.00000000E+00  1.00000000E+00  0.00000000E+00  0.00000000E+00  1.50000000E+00
  1.50000000E+00  1.00000000E+00  1.00000000E+00  0.00000000E+00  0.00000000E+00
  1.00000000E+00  0.00000000E+00  0.00000000E+00  1.00000000E+00  0.00000000E+00
  0.00000000E+00
Virial Ratio                               R      2.009985453879021E+00
SCF Energy                                 R     -4.633060781501117E+02
Total Energy                               R     -4.633060781501117E+02
RMS Force                                  R      3.588696489243396E-06
RMS Density                                R      4.093969320562887E-09
External E-field                           R   N=          35
  0.00000000E+00  0.00000000E+00  0.00000000E+00  0.00000000E+00  0.00000000E+00
  0.00000000E+00  0.00000000E+00  0.00000000E+00  0.00000000E+00  0.00000000E+00
  0.00000000E+00  0.00000000E+00  0.00000000E+00  0.00000000E+00  0.00000000E+00
  0.00000000E+00  0.00000000E+00  0.00000000E+00  0.00000000E+00  0.00000000E+00
  0.00000000E+00  0.00000000E+00  0.00000000E+00  0.00000000E+00  0.00000000E+00
  0.00000000E+00  0.00000000E+00  0.00000000E+00  0.00000000E+00  0.00000000E+00
  0.00000000E+00  0.00000000E+00  0.00000000E+00  0.00000000E+00  0.00000000E+00
IOpCl                                      I                0
IROHF                                      I                0
Alpha Orbital Energies                     R   N=         200
 -1.01973973E+01 -1.01971094E+01 -1.01891011E+01 -1.01891007E+01 -1.01889260E+01
 -1.01889258E+01 -1.01881314E+01 -1.01881312E+01 -1.01876211E+01 -1.01876204E+01
 -1.01875991E+01 -1.01875986E+01 -8.63372794E-01 -8.41274405E-01 -7.72499077E-01
 -7.46011667E-01 -7.38539204E-01 -7.16209688E-01 -6.20168268E-01 -6.14561028E-01
 -5.87587082E-01 -5.73722856E-01 -5.27835213E-01 -4.95721590E-01 -4.69040041E-01