 Title Card Required
GAUSSIAN             13 MOL ORBITALS    193 PRIMITIVES        8 NUCLEI
  C    1    (CENTRE  1)   0.00000000  1.25537950 -2.15666828  CHARGE =  6.0
  H    2    (CENTRE  2)  -1.74228892  2.33023155 -2.16558043  CHARGE =  1.0
  H    3    (CENTRE  3)   1.74228892  2.33023155 -2.16558043  CHARGE =  1.0
  C    4    (CENTRE  4)   0.00000000 -1.25537950 -2.15666828  CHARGE =  6.0
  H    5    (CENTRE  5)   1.74228892 -2.33023155 -2.16558043  CHARGE =  1.0
  H    6    (CENTRE  6)  -1.74228892 -2.33023155 -2.16558043  CHARGE =  1.0
  F    7    (CENTRE  7)   0.00000000  0.00000000  3.63108421  CHARGE =  9.0
  H    8    (CENTRE  8)   0.00000000  0.00000000  1.86258322  CHARGE =  1.0
CENTRE ASSIGNMENTS    1  1  1  1  1  1  1  1  1  1  1  1  1  1  1  1  1  1  1  1
CENTRE ASSIGNMENTS    1  1  1  1  1  1  1  1  1  1  1  1  1  1  1  1  1  1  1  1
CENTRE ASSIGNMENTS    1  1  1  1  1  1  1  1  1  1  1  2  2  2  2  2  2  2  2  3
CENTRE ASSIGNMENTS    3  3  3  3  3  3  3  4  4  4  4  4  4  4  4  4  4  4  4  4
CENTRE ASSIGNMENTS    4  4  4  4  4  4  4  4  4  4  4  4  4  4  4  4  4  4  4  4
CENTRE ASSIGNMENTS    4  4  4  4  4  4  4  4  4  4  4  4  4  4  4  4  4  4  5  5
CENTRE ASSIGNMENTS    5  5  5  5  5  5  6  6  6  6  6  6  6  6  7  7  7  7  7  7
CENTRE ASSIGNMENTS    7  7  7  7  7  7  7  7  7  7  7  7  7  7  7  7  7  7  7  7
CENTRE ASSIGNMENTS    7  7  7  7  7  7  7  7  7  7  7  7  7  7  7  7  7  7  7  7
CENTRE ASSIGNMENTS    7  7  7  7  7  8  8  8  8  8  8  8  8
TYPE ASSIGNMENTS      1  1  1  1  1  1  1  1  1  1  1  2  2  2  2  3  3  3  3  4
TYPE ASSIGNMENTS      4  4  4  2  3  4  2  3  4  5  6  7  8  9 10  5  6  7  8  9
TYPE ASSIGNMENTS     10 11 12 13 17 14 15 18 19 16 20  1  1  1  1  1  2  3  4  1
TYPE ASSIGNMENTS      1  1  1  1  2  3  4  1  1  1  1  1  1  1  1  1  1  1  2  2
TYPE ASSIGNMENTS      2  2  3  3  3  3  4  4  4  4  2  3  4  2  3  4  5  6  7  8
TYPE ASSIGNMENTS      9 10  5  6  7  8  9 10 11 12 13 17 14 15 18 19 16 20  1  1
TYPE ASSIGNMENTS      1  1  1  2  3  4  1  1  1  1  1  2  3  4  1  1  1  1  1  1
TYPE ASSIGNMENTS      1  1  1  1  1  2  2  2  2  3  3  3  3  4  4  4  4  2  3  4
TYPE ASSIGNMENTS      2  3  4  5  6  7  8  9 10  5  6  7  8  9 10 11 12 13 17 14
TYPE ASSIGNMENTS     15 18 19 16 20  1  1  1  1  1  2  3  4
EXPONENTS  0.1357535D+05 0.2035233D+04 0.4632256D+03 0.1312002D+03 0.4285302D+02
EXPONENTS  0.1558419D+02 0.6206714D+01 0.2576490D+01 0.5769634D+00 0.2297283D+00
EXPONENTS  0.9516444D-01 0.3469723D+02 0.7958262D+01 0.2378083D+01 0.8143321D+00
EXPONENTS  0.3469723D+02 0.7958262D+01 0.2378083D+01 0.8143321D+00 0.3469723D+02
EXPONENTS  0.7958262D+01 0.2378083D+01 0.8143321D+00 0.2888755D+00 0.2888755D+00
EXPONENTS  0.2888755D+00 0.1005682D+00 0.1005682D+00 0.1005682D+00 0.1097000D+01
EXPONENTS  0.1097000D+01 0.1097000D+01 0.1097000D+01 0.1097000D+01 0.1097000D+01
EXPONENTS  0.3180000D+00 0.3180000D+00 0.3180000D+00 0.3180000D+00 0.3180000D+00
EXPONENTS  0.3180000D+00 0.7610000D+00 0.7610000D+00 0.7610000D+00 0.7610000D+00
EXPONENTS  0.7610000D+00 0.7610000D+00 0.7610000D+00 0.7610000D+00 0.7610000D+00
EXPONENTS  0.7610000D+00 0.3406134D+02 0.5123575D+01 0.1164663D+01 0.3272304D+00
EXPONENTS  0.1030724D+00 0.8000000D+00 0.8000000D+00 0.8000000D+00 0.3406134D+02
EXPONENTS  0.5123575D+01 0.1164663D+01 0.3272304D+00 0.1030724D+00 0.8000000D+00
EXPONENTS  0.8000000D+00 0.8000000D+00 0.1357535D+05 0.2035233D+04 0.4632256D+03
EXPONENTS  0.1312002D+03 0.4285302D+02 0.1558419D+02 0.6206714D+01 0.2576490D+01
EXPONENTS  0.5769634D+00 0.2297283D+00 0.9516444D-01 0.3469723D+02 0.7958262D+01
EXPONENTS  0.2378083D+01 0.8143321D+00 0.3469723D+02 0.7958262D+01 0.2378083D+01
EXPONENTS  0.8143321D+00 0.3469723D+02 0.7958262D+01 0.2378083D+01 0.8143321D+00
EXPONENTS  0.2888755D+00 0.2888755D+00 0.2888755D+00 0.1005682D+00 0.1005682D+00
EXPONENTS  0.1005682D+00 0.1097000D+01 0.1097000D+01 0.1097000D+01 0.1097000D+01
EXPONENTS  0.1097000D+01 0.1097000D+01 0.3180000D+00 0.3180000D+00 0.3180000D+00
EXPONENTS  0.3180000D+00 0.3180000D+00 0.3180000D+00 0.7610000D+00 0.7610000D+00
EXPONENTS  0.7610000D+00 0.7610000D+00 0.7610000D+00 0.7610000D+00 0.7610000D+00
EXPONENTS  0.7610000D+00 0.7610000D+00 0.7610000D+00 0.3406134D+02 0.5123575D+01
EXPONENTS  0.1164663D+01 0.3272304D+00 0.1030724D+00 0.8000000D+00 0.8000000D+00
EXPONENTS  0.8000000D+00 0.3406134D+02 0.5123575D+01 0.1164663D+01 0.3272304D+00
EXPONENTS  0.1030724D+00 0.8000000D+00 0.8000000D+00 0.8000000D+00 0.3547910D+05
EXPONENTS  0.5318473D+04 0.1210481D+04 0.3428552D+03 0.1120194D+03 0.4071474D+02
EXPONENTS  0.1603968D+02 0.6503819D+01 0.1544048D+01 0.6122345D+00 0.2402798D+00
EXPONENTS  0.8023390D+02 0.1859401D+02 0.5686790D+01 0.1951101D+01 0.8023390D+02
EXPONENTS  0.1859401D+02 0.5686790D+01 0.1951101D+01 0.8023390D+02 0.1859401D+02
EXPONENTS  0.5686790D+01 0.1951101D+01 0.6697021D+00 0.6697021D+00 0.6697021D+00
EXPONENTS  0.2165130D+00 0.2165130D+00 0.2165130D+00 0.3107000D+01 0.3107000D+01
EXPONENTS  0.3107000D+01 0.3107000D+01 0.3107000D+01 0.3107000D+01 0.8550000D+00
EXPONENTS  0.8550000D+00 0.8550000D+00 0.8550000D+00 0.8550000D+00 0.8550000D+00
EXPONENTS  0.1917000D+01 0.1917000D+01 0.1917000D+01 0.1917000D+01 0.1917000D+01
EXPONENTS  0.1917000D+01 0.1917000D+01 0.1917000D+01 0.1917000D+01 0.1917000D+01
EXPONENTS  0.3406134D+02 0.5123575D+01 0.1164663D+01 0.3272304D+00 0.1030724D+00
EXPONENTS  0.8000000D+00 0.8000000D+00 0.8000000D+00
MO    1     MO 0.0        OCC NO =    2.0000000  ORB. ENERGY =  -24.646037
  0.28288680D-05  0.52797828D-05  0.90111781D-05  0.14004270D-04  0.18757730D-04
  0.19268252D-04 -0.43981999D-04 -0.13033140D-04  0.15506930D-03 -0.30686068D-03
  0.30304884D-03  0.00000000D+00  0.00000000D+00  0.00000000D+00  0.00000000D+00
 -0.19818228D-04 -0.21153282D-04 -0.18524741D-04 -0.11698143D-04 -0.31677060D-04
 -0.33810984D-04 -0.29609576D-04 -0.18698078D-04  0.00000000D+00 -0.20257583D-04
 -0.16488741D-04  0.00000000D+00  0.17448716D-05  0.72491717D-04  0.51440063D-04
  0.53786426D-04 -0.10522649D-03  0.00000000D+00  0.00000000D+00  0.10779093D-03
 -0.32957264D-04 -0.17738177D-04  0.50695441D-04  0.00000000D+00  0.00000000D+00
 -0.26705209D-04  0.00000000D+00  0.26270862D-04  0.12581510D-04  0.00000000D+00
 -0.93298754D-04 -0.23340374D-04  0.00000000D+00  0.14486168D-04 -0.14404157D-04
  0.00000000D+00  0.21591737D-04  0.38968690D-04  0.57530810D-04 -0.27547701D-04
 -0.56639695D-04  0.46602938D-04 -0.17180923D-04 -0.12930568D-04  0.21591737D-04
  0.38968690D-04  0.57530810D-04 -0.27547701D-04 -0.56639695D-04 -0.46602938D-04
 -0.17180923D-04 -0.12930568D-04  0.28288680D-05  0.52797828D-05  0.90111781D-05
  0.14004270D-04  0.18757730D-04  0.19268252D-04 -0.43981999D-04 -0.13033140D-04
  0.15506930D-03 -0.30686068D-03  0.30304884D-03  0.00000000D+00  0.00000000D+00
  0.00000000D+00  0.00000000D+00  0.19818228D-04  0.21153282D-04  0.18524741D-04
  0.11698143D-04 -0.31677060D-04 -0.33810984D-04 -0.29609576D-04 -0.18698078D-04
  0.00000000D+00  0.20257583D-04 -0.16488741D-04  0.00000000D+00 -0.17448716D-05
  0.72491717D-04  0.51440063D-04  0.53786426D-04 -0.10522649D-03  0.00000000D+00
  0.00000000D+00 -0.10779093D-03 -0.32957264D-04 -0.17738177D-04  0.50695441D-04
  0.00000000D+00  0.00000000D+00  0.26705209D-04  0.00000000D+00 -0.26270862D-04
  0.12581510D-04  0.00000000D+00  0.93298754D-04 -0.23340374D-04  0.00000000D+00
 -0.14486168D-04 -0.14404157D-04  0.00000000D+00  0.21591737D-04  0.38968690D-04
  0.57530810D-04 -0.27547701D-04 -0.56639695D-04 -0.46602938D-04  0.17180923D-04
 -0.12930568D-04  0.21591737D-04  0.38968690D-04  0.57530810D-04 -0.27547701D-04
 -0.56639695D-04  0.46602938D-04  0.17180923D-04 -0.12930568D-04  0.44027300D+00
  0.82218651D+00  0.14070183D+01  0.22075779D+01  0.30390442D+01  0.33112417D+01
  0.23465881D+01  0.75609533D+00  0.33001609D-01 -0.99107641D-02  0.25013037D-02
  0.00000000D+00  0.00000000D+00  0.00000000D+00  0.00000000D+00  0.00000000D+00
  0.00000000D+00  0.00000000D+00  0.00000000D+00 -0.50875660D-02 -0.56907512D-02
 -0.49277308D-02 -0.27744246D-02  0.00000000D+00  0.00000000D+00  0.19181413D-02
  0.00000000D+00  0.00000000D+00 -0.34868053D-03 -0.10684944D-02 -0.10136365D-02
  0.20821309D-02  0.00000000D+00  0.00000000D+00  0.00000000D+00  0.46411290D-03
  0.44928844D-03 -0.91340133D-03  0.00000000D+00  0.00000000D+00  0.00000000D+00
  0.00000000D+00  0.00000000D+00  0.11151407D-02  0.00000000D+00  0.00000000D+00
 -0.16824659D-02  0.00000000D+00  0.00000000D+00 -0.16629561D-02  0.00000000D+00
  0.24319700D-03  0.43892108D-03  0.64799420D-03  0.14806648D-03 -0.68937218D-03
  0.00000000D+00  0.00000000D+00  0.14829569D-02
MO    2     MO 0.0        OCC NO =    2.0000000  ORB. ENERGY =  -10.202469
  0.17936648D+00  0.33476857D+00  0.57136046D+00  0.88795120D+00  0.11893479D+01
  0.12217179D+01  0.79124774D+00  0.23446962D+00  0.12541766D-01 -0.28796510D-02
  0.13384969D-02  0.00000000D+00  0.00000000D+00  0.00000000D+00  0.00000000D+00
 -0.55120713D-03 -0.58833918D-03 -0.51523119D-03 -0.32536207D-03  0.23646656D-03
  0.25239612D-03  0.22103297D-03  0.13957956D-03  0.00000000D+00  0.83404074D-03
 -0.17311324D-03  0.00000000D+00  0.98482805D-04  0.10191315D-03  0.96286277D-03
  0.29987959D-03 -0.12627424D-02  0.00000000D+00  0.00000000D+00  0.48165228D-04
  0.50487349D-03 -0.45005980D-03 -0.54813689D-04  0.00000000D+00  0.00000000D+00
 -0.33885877D-04  0.00000000D+00  0.12224164D-04  0.10069678D-04  0.00000000D+00
  0.13222100D-02 -0.45258390D-04  0.00000000D+00 -0.13588825D-02  0.15049357D-04
  0.00000000D+00 -0.11768483D-03 -0.21239715D-03 -0.31356918D-03 -0.81500567D-03
 -0.35543863D-03 -0.14353127D-02  0.12661135D-02 -0.36374531D-04 -0.11768483D-03
 -0.21239715D-03 -0.31356918D-03 -0.81500567D-03 -0.35543863D-03  0.14353127D-02
  0.12661135D-02 -0.36374531D-04  0.17936648D+00  0.33476857D+00  0.57136046D+00
  0.88795120D+00  0.11893479D+01  0.12217179D+01  0.79124774D+00  0.23446962D+00
  0.12541766D-01 -0.28796510D-02  0.13384969D-02  0.00000000D+00  0.00000000D+00
  0.00000000D+00  0.00000000D+00  0.55120713D-03  0.58833918D-03  0.51523119D-03
  0.32536207D-03  0.23646656D-03  0.25239612D-03  0.22103297D-03  0.13957956D-03
  0.00000000D+00 -0.83404074D-03 -0.17311324D-03  0.00000000D+00 -0.98482805D-04
  0.10191315D-03  0.96286277D-03  0.29987959D-03 -0.12627424D-02  0.00000000D+00
  0.00000000D+00 -0.48165228D-04  0.50487349D-03 -0.45005980D-03 -0.54813689D-04
  0.00000000D+00  0.00000000D+00  0.33885877D-04  0.00000000D+00 -0.12224164D-04
  0.10069678D-04  0.00000000D+00 -0.13222100D-02 -0.45258390D-04  0.00000000D+00
  0.13588825D-02  0.15049357D-04  0.00000000D+00 -0.11768483D-03 -0.21239715D-03
 -0.31356918D-03 -0.81500567D-03 -0.35543863D-03  0.14353127D-02 -0.12661135D-02
 -0.36374531D-04 -0.11768483D-03 -0.21239715D-03 -0.31356918D-03 -0.81500567D-03
 -0.35543863D-03 -0.14353127D-02 -0.12661135D-02 -0.36374531D-04  0.70744880D-06
  0.13211232D-05  0.22608550D-05  0.35472272D-05  0.48832614D-05  0.53206396D-05
 -0.61156734D-04 -0.19705342D-04  0.90501223D-04 -0.19482537D-03  0.52683876D-03
  0.00000000D+00  0.00000000D+00  0.00000000D+00  0.00000000D+00  0.00000000D+00
  0.00000000D+00  0.00000000D+00  0.00000000D+00  0.39136098D-03  0.43776100D-03
  0.37906566D-03  0.21342260D-03  0.00000000D+00  0.00000000D+00 -0.56584276D-03
  0.00000000D+00  0.00000000D+00  0.29030331D-04 -0.46179911D-04  0.50463743D-04
 -0.42838322D-05  0.00000000D+00  0.00000000D+00  0.00000000D+00 -0.97802928D-04
 -0.13104726D-03  0.22885019D-03  0.00000000D+00  0.00000000D+00  0.00000000D+00
  0.00000000D+00  0.00000000D+00 -0.39853257D-03  0.00000000D+00  0.00000000D+00
  0.57888180D-03  0.00000000D+00  0.00000000D+00  0.61671592D-03  0.00000000D+00
 -0.84587763D-04 -0.15266369D-03 -0.22538263D-03 -0.30993082D-04 -0.49780656D-03
  0.00000000D+00  0.00000000D+00 -0.72637742D-03
MO    3     MO 0.0        OCC NO =    2.0000000  ORB. ENERGY =  -10.201556
  0.17943921D+00  0.33490430D+00  0.57159212D+00  0.88831122D+00  0.11898301D+01
  0.12222132D+01  0.79089508D+00  0.23436512D+00  0.11327588D-01  0.22676323D-02
  0.31186584D-02  0.00000000D+00  0.00000000D+00  0.00000000D+00  0.00000000D+00
 -0.40851166D-03 -0.43603104D-03 -0.38184911D-03 -0.24113295D-03  0.77426585D-04
  0.82642425D-04  0.72373142D-04  0.45702737D-04  0.00000000D+00 -0.49177339D-02
 -0.11497455D-04  0.00000000D+00 -0.43897315D-03  0.19550327D-04 -0.26733988D-03
  0.27807313D-02 -0.25133914D-02  0.00000000D+00  0.00000000D+00  0.14085081D-04
 -0.64978609D-03  0.14751114D-02 -0.82532533D-03  0.00000000D+00  0.00000000D+00
 -0.41557240D-04  0.00000000D+00 -0.16253880D-02 -0.35689972D-05  0.00000000D+00
  0.37090721D-02 -0.28451110D-04  0.00000000D+00  0.11670919D-02  0.39158101D-04
  0.00000000D+00 -0.10955728D-03 -0.19772859D-03 -0.29191348D-03 -0.25650878D-03
 -0.33471884D-03 -0.14658726D-02  0.71672890D-03 -0.67018201D-05 -0.10955728D-03
 -0.19772859D-03 -0.29191348D-03 -0.25650878D-03 -0.33471884D-03  0.14658726D-02
  0.71672890D-03 -0.67018201D-05 -0.17943921D+00 -0.33490430D+00 -0.57159212D+00
 -0.88831122D+00 -0.11898301D+01 -0.12222132D+01 -0.79089508D+00 -0.23436512D+00
 -0.11327588D-01 -0.22676323D-02 -0.31186584D-02  0.00000000D+00  0.00000000D+00
  0.00000000D+00  0.00000000D+00 -0.40851166D-03 -0.43603104D-03 -0.38184911D-03
 -0.24113295D-03 -0.77426585D-04 -0.82642425D-04 -0.72373142D-04 -0.45702737D-04
  0.00000000D+00 -0.49177339D-02  0.11497455D-04  0.00000000D+00 -0.43897315D-03
 -0.19550327D-04  0.26733988D-03 -0.27807313D-02  0.25133914D-02  0.00000000D+00
  0.00000000D+00  0.14085081D-04  0.64978609D-03 -0.14751114D-02  0.82532533D-03
  0.00000000D+00  0.00000000D+00 -0.41557240D-04  0.00000000D+00 -0.16253880D-02
  0.35689972D-05  0.00000000D+00  0.37090721D-02  0.28451110D-04  0.00000000D+00
  0.11670919D-02 -0.39158101D-04  0.00000000D+00  0.10955728D-03  0.19772859D-03
  0.29191348D-03  0.25650878D-03  0.33471884D-03 -0.14658726D-02  0.71672890D-03
  0.67018201D-05  0.10955728D-03  0.19772859D-03  0.29191348D-03  0.25650878D-03
  0.33471884D-03  0.14658726D-02  0.71672890D-03  0.67018201D-05  0.00000000D+00
  0.00000000D+00  0.00000000D+00  0.00000000D+00  0.00000000D+00  0.00000000D+00
  0.00000000D+00  0.00000000D+00  0.00000000D+00  0.00000000D+00  0.00000000D+00
  0.00000000D+00  0.00000000D+00  0.00000000D+00  0.00000000D+00 -0.20483595D-03
 -0.22912143D-03 -0.19840065D-03 -0.11170408D-03  0.00000000D+00  0.00000000D+00
  0.00000000D+00  0.00000000D+00  0.00000000D+00  0.18696012D-03  0.00000000D+00
  0.00000000D+00 -0.10575962D-03  0.00000000D+00  0.00000000D+00  0.00000000D+00
  0.00000000D+00  0.00000000D+00  0.00000000D+00 -0.58963183D-03  0.00000000D+00
  0.00000000D+00  0.00000000D+00  0.00000000D+00  0.00000000D+00  0.20063838D-03
  0.00000000D+00  0.13091963D-04  0.00000000D+00  0.00000000D+00  0.11642526D-04
  0.00000000D+00  0.00000000D+00 -0.50918416D-04  0.00000000D+00  0.00000000D+00
  0.00000000D+00  0.00000000D+00  0.00000000D+00  0.00000000D+00  0.00000000D+00
  0.00000000D+00 -0.37830411D-04  0.00000000D+00
MO    4     MO 0.0        OCC NO =    2.0000000  ORB. ENERGY =   -1.171374
 -0.33484750D-03 -0.62495744D-03 -0.10666353D-02 -0.16576578D-02 -0.22203154D-02
 -0.22807448D-02 -0.22659369D-02 -0.67146274D-03  0.86862489D-03  0.81534360D-04
 -0.10526389D-03  0.00000000D+00  0.00000000D+00  0.00000000D+00  0.00000000D+00
 -0.68295143D-03 -0.72895843D-03 -0.63837687D-03 -0.40312703D-03  0.14877722D-02
  0.15879960D-02  0.13906690D-02  0.87819013D-03  0.00000000D+00 -0.35394357D-03
  0.21064460D-03  0.00000000D+00 -0.82615386D-05 -0.47901389D-04 -0.99177488D-04
 -0.47854918D-04  0.14703241D-03  0.00000000D+00  0.00000000D+00  0.28434278D-04
 -0.17461921D-03  0.77775445D-04  0.96843767D-04  0.00000000D+00  0.00000000D+00
 -0.97922624D-04  0.00000000D+00 -0.10332480D-04 -0.43638810D-04  0.00000000D+00
 -0.27842920D-03  0.24529584D-04  0.00000000D+00  0.30942664D-03  0.10638684D-03
  0.00000000D+00  0.78476956D-04  0.14163493D-03  0.20910049D-03  0.48204703D-03
 -0.31127842D-04  0.29426835D-03 -0.28403565D-03  0.11023848D-03  0.78476956D-04
  0.14163493D-03  0.20910049D-03  0.48204703D-03 -0.31127842D-04 -0.29426835D-03
 -0.28403565D-03  0.11023848D-03 -0.33484750D-03 -0.62495744D-03 -0.10666353D-02
 -0.16576578D-02 -0.22203154D-02 -0.22807448D-02 -0.22659369D-02 -0.67146274D-03
  0.86862489D-03  0.81534360D-04 -0.10526389D-03  0.00000000D+00  0.00000000D+00
  0.00000000D+00  0.00000000D+00  0.68295143D-03  0.72895843D-03  0.63837687D-03
  0.40312703D-03  0.14877722D-02  0.15879960D-02  0.13906690D-02  0.87819013D-03
  0.00000000D+00  0.35394357D-03  0.21064460D-03  0.00000000D+00  0.82615386D-05
 -0.47901389D-04 -0.99177488D-04 -0.47854918D-04  0.14703241D-03  0.00000000D+00
  0.00000000D+00 -0.28434278D-04 -0.17461921D-03  0.77775445D-04  0.96843767D-04
  0.00000000D+00  0.00000000D+00  0.97922624D-04  0.00000000D+00  0.10332480D-04
 -0.43638810D-04  0.00000000D+00  0.27842920D-03  0.24529584D-04  0.00000000D+00
 -0.30942664D-03  0.10638684D-03  0.00000000D+00  0.78476956D-04  0.14163493D-03
  0.20910049D-03  0.48204703D-03 -0.31127842D-04 -0.29426835D-03  0.28403565D-03
  0.11023848D-03  0.78476956D-04  0.14163493D-03  0.20910049D-03  0.48204703D-03
 -0.31127842D-04  0.29426835D-03  0.28403565D-03  0.11023848D-03 -0.10625762D+00
 -0.19843047D+00 -0.33957661D+00 -0.53278754D+00 -0.73345764D+00 -0.79915111D+00
 -0.90128011D+00 -0.29040191D+00  0.35072765D+00  0.24087804D+00  0.49148560D-01
  0.00000000D+00  0.00000000D+00  0.00000000D+00  0.00000000D+00  0.00000000D+00
  0.00000000D+00  0.00000000D+00  0.00000000D+00 -0.28296805D+00 -0.31651693D+00
 -0.27407809D+00 -0.15431220D+00  0.00000000D+00  0.00000000D+00 -0.52650772D-01
  0.00000000D+00  0.00000000D+00 -0.14274368D-02 -0.18711043D-01 -0.18511868D-01
  0.37222911D-01  0.00000000D+00  0.00000000D+00  0.00000000D+00 -0.77771626D-02
 -0.77059156D-02  0.15483078D-01  0.00000000D+00  0.00000000D+00  0.00000000D+00
  0.00000000D+00  0.00000000D+00 -0.19691338D-01  0.00000000D+00  0.00000000D+00
  0.29544796D-01  0.00000000D+00  0.00000000D+00  0.29529217D-01  0.00000000D+00
  0.22871412D-01  0.41278244D-01  0.60940483D-01  0.16911689D-01  0.16248960D-02
  0.00000000D+00  0.00000000D+00  0.17233644D-01
MO    5     MO 0.0        OCC NO =    2.0000000  ORB. ENERGY =   -0.796517
 -0.41996901D-01 -0.78382772D-01 -0.13377844D+00 -0.20790505D+00 -0.27847412D+00
 -0.28605324D+00 -0.29942730D+00 -0.88728980D-01  0.12140336D+00  0.56270429D-01
  0.58031125D-02  0.00000000D+00  0.00000000D+00  0.00000000D+00  0.00000000D+00
 -0.11500097D+00 -0.12274800D+00 -0.10749514D+00 -0.67881839D-01  0.27180524D-02
  0.29011539D-02  0.25406518D-02  0.16043899D-02  0.00000000D+00 -0.12909238D-01
  0.12623052D-02  0.00000000D+00 -0.45521066D-03  0.99542835D-04 -0.23402622D-02
  0.19659800D-01 -0.17319538D-01  0.00000000D+00  0.00000000D+00 -0.22364661D-03
 -0.51334385D-03  0.15908889D-02 -0.10775451D-02  0.00000000D+00  0.00000000D+00
 -0.54268186D-03  0.00000000D+00 -0.31587594D-02  0.23705403D-03  0.00000000D+00
  0.81521802D-02 -0.59868846D-03  0.00000000D+00  0.13240979D-02 -0.11247363D-03
  0.00000000D+00  0.12984421D-01  0.23434236D-01  0.34596764D-01  0.16408363D-01
  0.51934934D-03  0.69918214D-02 -0.63273998D-02  0.13888036D-03  0.12984421D-01
  0.23434236D-01  0.34596764D-01  0.16408363D-01  0.51934934D-03 -0.69918214D-02
 -0.63273998D-02  0.13888036D-03 -0.41996901D-01 -0.78382772D-01 -0.13377844D+00
 -0.20790505D+00 -0.27847412D+00 -0.28605324D+00 -0.29942730D+00 -0.88728980D-01
  0.12140336D+00  0.56270429D-01  0.58031125D-02  0.00000000D+00  0.00000000D+00
  0.00000000D+00  0.00000000D+00  0.11500097D+00  0.12274800D+00  0.10749514D+00
  0.67881839D-01  0.27180524D-02  0.29011539D-02  0.25406518D-02  0.16043899D-02
  0.00000000D+00  0.12909238D-01  0.12623052D-02  0.00000000D+00  0.45521066D-03
  0.99542835D-04 -0.23402622D-02  0.19659800D-01 -0.17319538D-01  0.00000000D+00
  0.00000000D+00  0.22364661D-03 -0.51334385D-03  0.15908889D-02 -0.10775451D-02
  0.00000000D+00  0.00000000D+00  0.54268186D-03  0.00000000D+00  0.31587594D-02
  0.23705403D-03  0.00000000D+00 -0.81521802D-02 -0.59868846D-03  0.00000000D+00
 -0.13240979D-02 -0.11247363D-03  0.00000000D+00  0.12984421D-01  0.23434236D-01
  0.34596764D-01  0.16408363D-01  0.51934934D-03 -0.69918214D-02  0.63273998D-02
  0.13888036D-03  0.12984421D-01  0.23434236D-01  0.34596764D-01  0.16408363D-01
  0.51934934D-03  0.69918214D-02  0.63273998D-02  0.13888036D-03  0.33736608D-02
  0.63001327D-02  0.10781498D-01  0.16915911D-01  0.23287151D-01  0.25372908D-01
  0.28956562D-01  0.93301082D-02 -0.12293253D-01 -0.69549368D-02 -0.40822678D-02
  0.00000000D+00  0.00000000D+00  0.00000000D+00  0.00000000D+00  0.00000000D+00
  0.00000000D+00  0.00000000D+00  0.00000000D+00 -0.37556021D-01 -0.42008688D-01
 -0.36376130D-01 -0.20480589D-01  0.00000000D+00  0.00000000D+00 -0.59674526D-02
  0.00000000D+00  0.00000000D+00 -0.23611093D-04 -0.14923293D-02 -0.15023100D-02
  0.29946393D-02  0.00000000D+00  0.00000000D+00  0.00000000D+00 -0.46336954D-03
 -0.43029766D-03  0.89366720D-03  0.00000000D+00  0.00000000D+00  0.00000000D+00
  0.00000000D+00  0.00000000D+00 -0.10033077D-02  0.00000000D+00  0.00000000D+00
  0.15441901D-02  0.00000000D+00  0.00000000D+00  0.14657331D-02  0.00000000D+00
  0.19629373D-02  0.35427022D-02  0.52302124D-02  0.50264294D-02  0.24476376D-03
  0.00000000D+00  0.00000000D+00 -0.36304416D-02
MO    6     MO 0.0        OCC NO =    2.0000000  ORB. ENERGY =   -0.610491
 -0.32637206D-01 -0.60913892D-01 -0.10396373D+00 -0.16157002D+00 -0.21641162D+00
 -0.22230161D+00 -0.23528995D+00 -0.69723227D-01  0.97212921D-01  0.62677428D-01
  0.98828855D-02  0.00000000D+00  0.00000000D+00  0.00000000D+00  0.00000000D+00
  0.16719179D+00  0.17845466D+00  0.15627959D+00  0.98688615D-01  0.58401238D-03
  0.62335436D-03  0.54589533D-03  0.34472610D-03  0.00000000D+00  0.15162117D-01
  0.13292315D-02  0.00000000D+00  0.18771714D-02  0.21697008D-03  0.15059241D-01
 -0.38582455D-02 -0.11200995D-01  0.00000000D+00  0.00000000D+00  0.26676390D-03
 -0.12198221D-02  0.21100833D-02 -0.89026127D-03  0.00000000D+00  0.00000000D+00
 -0.66381480D-03  0.00000000D+00 -0.16498356D-02  0.41544893D-04  0.00000000D+00
  0.80739640D-02 -0.33457324D-03  0.00000000D+00 -0.31244571D-02  0.20993857D-03
  0.00000000D+00  0.23253167D-01  0.41967234D-01  0.61957662D-01  0.34891867D-01
  0.23716813D-02  0.13600605D-01 -0.52477932D-02  0.79080509D-04  0.23253167D-01
  0.41967234D-01  0.61957662D-01  0.34891867D-01  0.23716813D-02 -0.13600605D-01
 -0.52477932D-02  0.79080509D-04  0.32637206D-01  0.60913892D-01  0.10396373D+00
  0.16157002D+00  0.21641162D+00  0.22230161D+00  0.23528995D+00  0.69723227D-01
 -0.97212921D-01 -0.62677428D-01 -0.98828855D-02  0.00000000D+00  0.00000000D+00
  0.00000000D+00  0.00000000D+00  0.16719179D+00  0.17845466D+00  0.15627959D+00
  0.98688615D-01 -0.58401238D-03 -0.62335436D-03 -0.54589533D-03 -0.34472610D-03
  0.00000000D+00  0.15162117D-01 -0.13292315D-02  0.00000000D+00  0.18771714D-02
 -0.21697008D-03 -0.15059241D-01  0.38582455D-02  0.11200995D-01  0.00000000D+00
  0.00000000D+00  0.26676390D-03  0.12198221D-02 -0.21100833D-02  0.89026127D-03
  0.00000000D+00  0.00000000D+00 -0.66381480D-03  0.00000000D+00 -0.16498356D-02
 -0.41544893D-04  0.00000000D+00  0.80739640D-02  0.33457324D-03  0.00000000D+00
 -0.31244571D-02 -0.20993857D-03  0.00000000D+00 -0.23253167D-01 -0.41967234D-01
 -0.61957662D-01 -0.34891867D-01 -0.23716813D-02  0.13600605D-01 -0.52477932D-02
 -0.79080509D-04 -0.23253167D-01 -0.41967234D-01 -0.61957662D-01 -0.34891867D-01
 -0.23716813D-02 -0.13600605D-01 -0.52477932D-02 -0.79080509D-04  0.00000000D+00
  0.00000000D+00  0.00000000D+00  0.00000000D+00  0.00000000D+00  0.00000000D+00
  0.00000000D+00  0.00000000D+00  0.00000000D+00  0.00000000D+00  0.00000000D+00
  0.00000000D+00  0.00000000D+00  0.00000000D+00  0.00000000D+00  0.20569704D-01
  0.23008462D-01  0.19923469D-01  0.11217367D-01  0.00000000D+00  0.00000000D+00
  0.00000000D+00  0.00000000D+00  0.00000000D+00  0.30133434D-02  0.00000000D+00
  0.00000000D+00  0.54741269D-03  0.00000000D+00  0.00000000D+00  0.00000000D+00
  0.00000000D+00  0.00000000D+00  0.00000000D+00 -0.21226064D-02  0.00000000D+00
  0.00000000D+00  0.00000000D+00  0.00000000D+00  0.00000000D+00 -0.23091025D-03
  0.00000000D+00  0.87583437D-04  0.00000000D+00  0.00000000D+00  0.74244842D-04
  0.00000000D+00  0.00000000D+00 -0.33699515D-03  0.00000000D+00  0.00000000D+00
  0.00000000D+00  0.00000000D+00  0.00000000D+00  0.00000000D+00  0.00000000D+00
  0.00000000D+00  0.23654681D-02  0.00000000D+00
MO    7     MO 0.0        OCC NO =    2.0000000  ORB. ENERGY =   -0.526006
 -0.27362692D-02 -0.51069570D-02 -0.87162105D-02 -0.13545861D-01 -0.18143724D-01
 -0.18637534D-01 -0.19486565D-01 -0.57744337D-02  0.70828451D-02  0.87350425D-02
 -0.45750283D-02  0.00000000D+00  0.00000000D+00  0.00000000D+00  0.00000000D+00
 -0.18192122D-02 -0.19417634D-02 -0.17004767D-02 -0.10738298D-02 -0.35634681D-01
 -0.38035210D-01 -0.33308893D-01 -0.21034150D-01  0.00000000D+00  0.47361706D-03
 -0.67658181D-02  0.00000000D+00 -0.40702660D-04 -0.17038272D-02  0.92053781D-03
  0.17825856D-02 -0.27031234D-02  0.00000000D+00  0.00000000D+00  0.39504616D-02
  0.78762415D-03  0.43215791D-03 -0.12197821D-02  0.00000000D+00  0.00000000D+00
  0.95480202D-03  0.00000000D+00 -0.47038470D-03  0.13807800D-03  0.00000000D+00
  0.12725568D-02  0.14862703D-03  0.00000000D+00  0.13859728D-03 -0.56286103D-03
  0.00000000D+00  0.13036780D-02  0.23528733D-02  0.34736274D-02  0.19281852D-02
  0.16610039D-02  0.70392488D-04 -0.37259913D-04 -0.10370894D-02  0.13036780D-02
  0.23528733D-02  0.34736274D-02  0.19281852D-02  0.16610039D-02 -0.70392488D-04
 -0.37259913D-04 -0.10370894D-02 -0.27362692D-02 -0.51069570D-02 -0.87162105D-02
 -0.13545861D-01 -0.18143724D-01 -0.18637534D-01 -0.19486565D-01 -0.57744337D-02
  0.70828451D-02  0.87350425D-02 -0.45750283D-02  0.00000000D+00  0.00000000D+00
  0.00000000D+00  0.00000000D+00  0.18192122D-02  0.19417634D-02  0.17004767D-02
  0.10738298D-02 -0.35634681D-01 -0.38035210D-01 -0.33308893D-01 -0.21034150D-01
  0.00000000D+00 -0.47361706D-03 -0.67658181D-02  0.00000000D+00  0.40702660D-04
 -0.17038272D-02  0.92053781D-03  0.17825856D-02 -0.27031234D-02  0.00000000D+00
  0.00000000D+00 -0.39504616D-02  0.78762415D-03  0.43215791D-03 -0.12197821D-02
  0.00000000D+00  0.00000000D+00 -0.95480202D-03  0.00000000D+00  0.47038470D-03
  0.13807800D-03  0.00000000D+00 -0.12725568D-02  0.14862703D-03  0.00000000D+00
 -0.13859728D-03 -0.56286103D-03  0.00000000D+00  0.13036780D-02  0.23528733D-02
  0.34736274D-02  0.19281852D-02  0.16610039D-02 -0.70392488D-04  0.37259913D-04
 -0.10370894D-02  0.13036780D-02  0.23528733D-02  0.34736274D-02  0.19281852D-02
  0.16610039D-02  0.70392488D-04  0.37259913D-04 -0.10370894D-02 -0.29374597D-01
 -0.54855504D-01 -0.93874925D-01 -0.14728750D+00 -0.20276214D+00 -0.22092290D+00
 -0.25296688D+00 -0.81508585D-01  0.10709042D+00  0.71198738D-01  0.38070763D-01
  0.00000000D+00  0.00000000D+00  0.00000000D+00  0.00000000D+00  0.00000000D+00
  0.00000000D+00  0.00000000D+00  0.00000000D+00  0.17876625D+01  0.19996089D+01
  0.17314998D+01  0.97487380D+00  0.00000000D+00  0.00000000D+00  0.28184414D+00
  0.00000000D+00  0.00000000D+00  0.37676471D-01  0.37037131D-01  0.37057372D-01
 -0.74094504D-01  0.00000000D+00  0.00000000D+00  0.00000000D+00  0.12119983D-01
  0.12131291D-01 -0.24251274D-01  0.00000000D+00  0.00000000D+00  0.00000000D+00
  0.00000000D+00  0.00000000D+00  0.29581948D-01  0.00000000D+00  0.00000000D+00
 -0.44560233D-01  0.00000000D+00  0.00000000D+00 -0.44185610D-01  0.00000000D+00
 -0.41396556D-01 -0.74712357D-01 -0.11030041D+00 -0.64286231D-01 -0.41509729D-03
  0.00000000D+00  0.00000000D+00 -0.17719843D-01
MO    8     MO 0.0        OCC NO =    2.0000000  ORB. ENERGY =   -0.501177
  0.00000000D+00  0.00000000D+00  0.00000000D+00  0.00000000D+00  0.00000000D+00
  0.00000000D+00  0.00000000D+00  0.00000000D+00  0.00000000D+00  0.00000000D+00
  0.00000000D+00  0.33507722D+00  0.35764969D+00  0.31320755D+00  0.19778666D+00
  0.00000000D+00  0.00000000D+00  0.00000000D+00  0.00000000D+00  0.00000000D+00
  0.00000000D+00  0.00000000D+00  0.00000000D+00  0.48531864D-01  0.00000000D+00
  0.00000000D+00  0.53792281D-02  0.00000000D+00  0.00000000D+00  0.00000000D+00
  0.00000000D+00  0.00000000D+00  0.87577696D-02 -0.52528002D-03  0.00000000D+00
  0.00000000D+00  0.00000000D+00  0.00000000D+00 -0.34473889D-02  0.89124819D-03
  0.00000000D+00 -0.80698338D-03  0.00000000D+00  0.00000000D+00  0.68516438D-02
  0.00000000D+00  0.00000000D+00 -0.44306937D-02  0.00000000D+00  0.00000000D+00
  0.43689171D-05 -0.24876389D-01 -0.44896818D-01 -0.66282707D-01 -0.41689862D-01
 -0.39463182D-02 -0.80240872D-02  0.11629464D-01  0.20474718D-03  0.24876389D-01
  0.44896818D-01  0.66282707D-01  0.41689862D-01  0.39463182D-02 -0.80240872D-02
 -0.11629464D-01 -0.20474718D-03  0.00000000D+00  0.00000000D+00  0.00000000D+00
  0.00000000D+00  0.00000000D+00  0.00000000D+00  0.00000000D+00  0.00000000D+00
  0.00000000D+00  0.00000000D+00  0.00000000D+00  0.33507722D+00  0.35764969D+00
  0.31320755D+00  0.19778666D+00  0.00000000D+00  0.00000000D+00  0.00000000D+00
  0.00000000D+00  0.00000000D+00  0.00000000D+00  0.00000000D+00  0.00000000D+00
  0.48531864D-01  0.00000000D+00  0.00000000D+00  0.53792281D-02  0.00000000D+00
  0.00000000D+00  0.00000000D+00  0.00000000D+00  0.00000000D+00 -0.87577696D-02
 -0.52528002D-03  0.00000000D+00  0.00000000D+00  0.00000000D+00  0.00000000D+00