 Generated by Multiwfn
GAUSSIAN             32 MOL ORBITALS    256 PRIMITIVES       12 NUCLEI
  C    1    (CENTRE  1)  -1.41242074  3.35722584  0.00000000  CHARGE =  6.0
  H    2    (CENTRE  2)  -1.17992425  4.40240372  1.74484747  CHARGE =  1.0
  H    3    (CENTRE  3)  -1.17992425  4.40240372 -1.74484747  CHARGE =  1.0
  C    4    (CENTRE  4)  -1.41242074  0.58456369  0.00000000  CHARGE =  6.0
  H    5    (CENTRE  5)  -2.36175830 -0.17238687  1.66852528  CHARGE =  1.0
  H    6    (CENTRE  6)  -2.36175830 -0.17238687 -1.66852528  CHARGE =  1.0
  C    7    (CENTRE  7)   1.41242074 -0.58456369  0.00000000  CHARGE =  6.0
  H    8    (CENTRE  8)   2.36175830  0.17238687 -1.66852528  CHARGE =  1.0
  H    9    (CENTRE  9)   2.36175830  0.17238687  1.66852528  CHARGE =  1.0
  C   10    (CENTRE 10)   1.41242074 -3.35722584  0.00000000  CHARGE =  6.0
  H   11    (CENTRE 11)   1.17992425 -4.40240372 -1.74484747  CHARGE =  1.0
  H   12    (CENTRE 12)   1.17992425 -4.40240372  1.74484747  CHARGE =  1.0
CENTRE ASSIGNMENTS    1  1  1  1  1  1  1  1  1  1  1  1  1  1  1  1  1  1  1  1
CENTRE ASSIGNMENTS    1  1  1  1  1  1  1  1  1  1  1  1  1  1  1  1  1  1  1  1
CENTRE ASSIGNMENTS    1  1  1  1  1  1  1  1  2  2  2  2  2  2  2  2  3  3  3  3
CENTRE ASSIGNMENTS    3  3  3  3  4  4  4  4  4  4  4  4  4  4  4  4  4  4  4  4
CENTRE ASSIGNMENTS    4  4  4  4  4  4  4  4  4  4  4  4  4  4  4  4  4  4  4  4
CENTRE ASSIGNMENTS    4  4  4  4  4  4  4  4  4  4  4  4  5  5  5  5  5  5  5  5
CENTRE ASSIGNMENTS    6  6  6  6  6  6  6  6  7  7  7  7  7  7  7  7  7  7  7  7
CENTRE ASSIGNMENTS    7  7  7  7  7  7  7  7  7  7  7  7  7  7  7  7  7  7  7  7
CENTRE ASSIGNMENTS    7  7  7  7  7  7  7  7  7  7  7  7  7  7  7  7  8  8  8  8
CENTRE ASSIGNMENTS    8  8  8  8  9  9  9  9  9  9  9  9 10 10 10 10 10 10 10 10
CENTRE ASSIGNMENTS   10 10 10 10 10 10 10 10 10 10 10 10 10 10 10 10 10 10 10 10
CENTRE ASSIGNMENTS   10 10 10 10 10 10 10 10 10 10 10 10 10 10 10 10 10 10 10 10
CENTRE ASSIGNMENTS   11 11 11 11 11 11 11 11 12 12 12 12 12 12 12 12
TYPE ASSIGNMENTS      1  1  1  1  1  1  1  1  1  2  2  2  3  3  3  4  4  4  1  2
TYPE ASSIGNMENTS      3  4  1  2  3  4  5  6  7  8  9 10  5  6  7  8  9 10 11 12
TYPE ASSIGNMENTS     13 17 14 15 18 19 16 20  1  1  1  1  1  2  3  4  1  1  1  1
TYPE ASSIGNMENTS      1  2  3  4  1  1  1  1  1  1  1  1  1  2  2  2  3  3  3  4
TYPE ASSIGNMENTS      4  4  1  2  3  4  1  2  3  4  5  6  7  8  9 10  5  6  7  8
TYPE ASSIGNMENTS      9 10 11 12 13 17 14 15 18 19 16 20  1  1  1  1  1  2  3  4
TYPE ASSIGNMENTS      1  1  1  1  1  2  3  4  1  1  1  1  1  1  1  1  1  2  2  2
TYPE ASSIGNMENTS      3  3  3  4  4  4  1  2  3  4  1  2  3  4  5  6  7  8  9 10
TYPE ASSIGNMENTS      5  6  7  8  9 10 11 12 13 17 14 15 18 19 16 20  1  1  1  1
TYPE ASSIGNMENTS      1  2  3  4  1  1  1  1  1  2  3  4  1  1  1  1  1  1  1  1
TYPE ASSIGNMENTS      1  2  2  2  3  3  3  4  4  4  1  2  3  4  1  2  3  4  5  6
TYPE ASSIGNMENTS      7  8  9 10  5  6  7  8  9 10 11 12 13 17 14 15 18 19 16 20
TYPE ASSIGNMENTS      1  1  1  1  1  2  3  4  1  1  1  1  1  2  3  4
EXPONENTS  0.4563240D+04 0.6820240D+03 0.1549730D+03 0.4445530D+02 0.1302900D+02
EXPONENTS  0.1827730D+01 0.2096420D+02 0.4803310D+01 0.1459330D+01 0.2096420D+02
EXPONENTS  0.4803310D+01 0.1459330D+01 0.2096420D+02 0.4803310D+01 0.1459330D+01
EXPONENTS  0.2096420D+02 0.4803310D+01 0.1459330D+01 0.4834560D+00 0.4834560D+00
EXPONENTS  0.4834560D+00 0.4834560D+00 0.1455850D+00 0.1455850D+00 0.1455850D+00
EXPONENTS  0.1455850D+00 0.1252000D+01 0.1252000D+01 0.1252000D+01 0.1252000D+01
EXPONENTS  0.1252000D+01 0.1252000D+01 0.3130000D+00 0.3130000D+00 0.3130000D+00
EXPONENTS  0.3130000D+00 0.3130000D+00 0.3130000D+00 0.8000000D+00 0.8000000D+00
EXPONENTS  0.8000000D+00 0.8000000D+00 0.8000000D+00 0.8000000D+00 0.8000000D+00
EXPONENTS  0.8000000D+00 0.8000000D+00 0.8000000D+00 0.3386500D+02 0.5094790D+01
EXPONENTS  0.1158790D+01 0.3258400D+00 0.1027410D+00 0.7500000D+00 0.7500000D+00
EXPONENTS  0.7500000D+00 0.3386500D+02 0.5094790D+01 0.1158790D+01 0.3258400D+00
EXPONENTS  0.1027410D+00 0.7500000D+00 0.7500000D+00 0.7500000D+00 0.4563240D+04
EXPONENTS  0.6820240D+03 0.1549730D+03 0.4445530D+02 0.1302900D+02 0.1827730D+01
EXPONENTS  0.2096420D+02 0.4803310D+01 0.1459330D+01 0.2096420D+02 0.4803310D+01
EXPONENTS  0.1459330D+01 0.2096420D+02 0.4803310D+01 0.1459330D+01 0.2096420D+02
EXPONENTS  0.4803310D+01 0.1459330D+01 0.4834560D+00 0.4834560D+00 0.4834560D+00
EXPONENTS  0.4834560D+00 0.1455850D+00 0.1455850D+00 0.1455850D+00 0.1455850D+00
EXPONENTS  0.1252000D+01 0.1252000D+01 0.1252000D+01 0.1252000D+01 0.1252000D+01
EXPONENTS  0.1252000D+01 0.3130000D+00 0.3130000D+00 0.3130000D+00 0.3130000D+00
EXPONENTS  0.3130000D+00 0.3130000D+00 0.8000000D+00 0.8000000D+00 0.8000000D+00
EXPONENTS  0.8000000D+00 0.8000000D+00 0.8000000D+00 0.8000000D+00 0.8000000D+00
EXPONENTS  0.8000000D+00 0.8000000D+00 0.3386500D+02 0.5094790D+01 0.1158790D+01
EXPONENTS  0.3258400D+00 0.1027410D+00 0.7500000D+00 0.7500000D+00 0.7500000D+00
EXPONENTS  0.3386500D+02 0.5094790D+01 0.1158790D+01 0.3258400D+00 0.1027410D+00
EXPONENTS  0.7500000D+00 0.7500000D+00 0.7500000D+00 0.4563240D+04 0.6820240D+03
EXPONENTS  0.1549730D+03 0.4445530D+02 0.1302900D+02 0.1827730D+01 0.2096420D+02
EXPONENTS  0.4803310D+01 0.1459330D+01 0.2096420D+02 0.4803310D+01 0.1459330D+01
EXPONENTS  0.2096420D+02 0.4803310D+01 0.1459330D+01 0.2096420D+02 0.4803310D+01
EXPONENTS  0.1459330D+01 0.4834560D+00 0.4834560D+00 0.4834560D+00 0.4834560D+00
EXPONENTS  0.1455850D+00 0.1455850D+00 0.1455850D+00 0.1455850D+00 0.1252000D+01
EXPONENTS  0.1252000D+01 0.1252000D+01 0.1252000D+01 0.1252000D+01 0.1252000D+01
EXPONENTS  0.3130000D+00 0.3130000D+00 0.3130000D+00 0.3130000D+00 0.3130000D+00
EXPONENTS  0.3130000D+00 0.8000000D+00 0.8000000D+00 0.8000000D+00 0.8000000D+00
EXPONENTS  0.8000000D+00 0.8000000D+00 0.8000000D+00 0.8000000D+00 0.8000000D+00
EXPONENTS  0.8000000D+00 0.3386500D+02 0.5094790D+01 0.1158790D+01 0.3258400D+00
EXPONENTS  0.1027410D+00 0.7500000D+00 0.7500000D+00 0.7500000D+00 0.3386500D+02
EXPONENTS  0.5094790D+01 0.1158790D+01 0.3258400D+00 0.1027410D+00 0.7500000D+00
EXPONENTS  0.7500000D+00 0.7500000D+00 0.4563240D+04 0.6820240D+03 0.1549730D+03
EXPONENTS  0.4445530D+02 0.1302900D+02 0.1827730D+01 0.2096420D+02 0.4803310D+01
EXPONENTS  0.1459330D+01 0.2096420D+02 0.4803310D+01 0.1459330D+01 0.2096420D+02
EXPONENTS  0.4803310D+01 0.1459330D+01 0.2096420D+02 0.4803310D+01 0.1459330D+01
EXPONENTS  0.4834560D+00 0.4834560D+00 0.4834560D+00 0.4834560D+00 0.1455850D+00
EXPONENTS  0.1455850D+00 0.1455850D+00 0.1455850D+00 0.1252000D+01 0.1252000D+01
EXPONENTS  0.1252000D+01 0.1252000D+01 0.1252000D+01 0.1252000D+01 0.3130000D+00
EXPONENTS  0.3130000D+00 0.3130000D+00 0.3130000D+00 0.3130000D+00 0.3130000D+00
EXPONENTS  0.8000000D+00 0.8000000D+00 0.8000000D+00 0.8000000D+00 0.8000000D+00
EXPONENTS  0.8000000D+00 0.8000000D+00 0.8000000D+00 0.8000000D+00 0.8000000D+00
EXPONENTS  0.3386500D+02 0.5094790D+01 0.1158790D+01 0.3258400D+00 0.1027410D+00
EXPONENTS  0.7500000D+00 0.7500000D+00 0.7500000D+00 0.3386500D+02 0.5094790D+01
EXPONENTS  0.1158790D+01 0.3258400D+00 0.1027410D+00 0.7500000D+00 0.7500000D+00
EXPONENTS  0.7500000D+00
MO    1     MO 0.0        OCC NO =    1.0000000  ORB. ENERGY =  -10.179202
 -0.53472908D-03 -0.99544781D-03 -0.16375023D-02 -0.21988907D-02 -0.20703385D-02
 -0.17013350D-03 -0.31877389D-03 -0.84704190D-03  0.11418717D-05  0.71554416D-04
  0.66957304D-04  0.51861020D-04  0.21656681D-03  0.20265318D-03  0.15696272D-03
  0.38491459D-15  0.36018522D-15  0.27897737D-15 -0.28550028D-03 -0.16176465D-03
  0.30757754D-04 -0.44599696D-15 -0.67207978D-03  0.57794740D-05  0.85832074D-04
  0.63021040D-16  0.23540523D-03 -0.21614859D-04  0.46288505D-03  0.48895561D-03
 -0.10679030D-15 -0.63186103D-15  0.11056225D-03  0.20658148D-04 -0.11584858D-03
  0.17787980D-04  0.66129826D-16  0.12386737D-15  0.44945900D-05  0.33748684D-03
  0.37569451D-15 -0.86847214D-04  0.16647731D-03  0.28814762D-15 -0.22822411D-03
  0.20443542D-03  0.78570440D-15  0.53823574D-16  0.94560233D-05  0.17057317D-04
  0.25146981D-04  0.23152462D-03  0.26900980D-04  0.72475637D-05 -0.14434629D-03
 -0.30280122D-04  0.94560233D-05  0.17057317D-04  0.25146981D-04  0.23152462D-03
  0.26900980D-04  0.72475637D-05 -0.14434629D-03  0.30280122D-04  0.80782984D-02
  0.15038502D-01  0.24738195D-01  0.33219244D-01  0.31277170D-01  0.25702533D-02
  0.69693759D-02  0.18518937D-01 -0.24964820D-04  0.58648522D-04  0.54880566D-04
  0.42507120D-04  0.10239304D-03  0.95814662D-04  0.74212159D-04 -0.42162901D-14
 -0.39454087D-14 -0.30558715D-14  0.48146628D-03  0.69321807D-03 -0.47006309D-03
  0.36925662D-14 -0.71720284D-03 -0.61940311D-03  0.41575710D-03 -0.10263374D-16
 -0.56368146D-04  0.52094878D-04  0.58342299D-03  0.44978763D-03 -0.19761353D-15
 -0.56513479D-15 -0.59134365D-03  0.39575279D-03  0.23183304D-03  0.61866942D-03
 -0.20460181D-15 -0.13304480D-15 -0.17886392D-02  0.27482260D-03 -0.25257858D-14
 -0.39878630D-03  0.25501984D-02 -0.25353778D-14  0.17019037D-03 -0.62298206D-03
 -0.29590283D-14  0.59837875D-15 -0.24962746D-04 -0.45029233D-04 -0.66384958D-04
 -0.24068810D-03 -0.49674408D-04 -0.30049529D-03  0.11847474D-03  0.63342250D-04
 -0.24962746D-04 -0.45029233D-04 -0.66384958D-04 -0.24068810D-03 -0.49674408D-04
 -0.30049529D-03  0.11847474D-03 -0.63342250D-04  0.43982618D+00  0.81877725D+00
  0.13468809D+01  0.18086350D+01  0.17028980D+01  0.13993847D+00  0.36204610D+00
  0.96202428D+00 -0.12968759D-02 -0.18029861D-02 -0.16871507D-02 -0.13067635D-02
 -0.56316961D-03 -0.52698800D-03 -0.40817257D-03  0.14628256D-14  0.13688443D-14
  0.10602228D-14  0.16364165D-01  0.17522128D-02  0.29256433D-03 -0.13286990D-14
  0.10331869D-01 -0.73738750D-04 -0.33609273D-03  0.10245518D-15 -0.31200369D-01
 -0.30009087D-01 -0.30482153D-01  0.70990874D-03  0.73972031D-16  0.28416799D-15
 -0.34549202D-02 -0.31249305D-02 -0.30052200D-02  0.10874426D-03  0.11235678D-15
  0.98921399D-16 -0.19388331D-02 -0.22928053D-02  0.14370454D-14 -0.11913265D-02
  0.15930009D-02  0.14598824D-14  0.26458852D-02  0.27394593D-02  0.10657729D-14
  0.60047791D-15 -0.19314410D-03 -0.34840441D-03 -0.51363993D-03 -0.17177227D-02
 -0.38379581D-03  0.15172312D-02  0.11800503D-02 -0.25399447D-02 -0.19314410D-03
 -0.34840441D-03 -0.51363993D-03 -0.17177227D-02 -0.38379581D-03  0.15172312D-02
  0.11800503D-02  0.25399447D-02  0.36263202D-02  0.67507317D-02  0.11104890D-01
  0.14912004D-01  0.14040214D-01  0.11537778D-02  0.32378399D-02  0.86035468D-02
 -0.11598182D-04  0.15366103D-03  0.14378887D-03  0.11137003D-03  0.16870550D-03
  0.15786678D-03  0.12227393D-03 -0.45480094D-15 -0.42558163D-15 -0.32962942D-15
  0.86750453D-03 -0.12592205D-03 -0.51336058D-03  0.44881329D-15 -0.23669795D-02
 -0.49200652D-04 -0.10123381D-02 -0.76992228D-16  0.61308397D-03 -0.20024383D-02
  0.99058723D-03  0.11674168D-03 -0.23931268D-15  0.15502858D-15  0.39230631D-03
 -0.73319785D-03  0.57690691D-03 -0.34028430D-04  0.26220117D-16 -0.40694732D-16
  0.93824323D-04 -0.23555071D-02 -0.20576972D-15  0.70195127D-05  0.80311858D-03
 -0.11903458D-15 -0.20699518D-03 -0.88723662D-04  0.82676777D-16 -0.70893978D-16
 -0.29175209D-04 -0.52627915D-04 -0.77587419D-04 -0.33044627D-03 -0.46316417D-04
 -0.67380934D-05 -0.50077254D-03 -0.21571033D-03 -0.29175209D-04 -0.52627915D-04
 -0.77587419D-04 -0.33044627D-03 -0.46316417D-04 -0.67380934D-05 -0.50077254D-03
  0.21571033D-03
MO    2     MO 0.0        OCC NO =    1.0000000  ORB. ENERGY =  -10.176412
  0.29243664D-01  0.54439794D-01  0.89552950D-01  0.12025458D+00  0.11322422D+00
  0.93043880D-02  0.24344863D-01  0.64688859D-01 -0.87205100D-04 -0.92483203D-04
 -0.86541491D-04 -0.67029730D-04 -0.22713208D-03 -0.21253967D-03 -0.16462019D-03
 -0.18646442D-14 -0.17448476D-14 -0.13514519D-14  0.18615489D-02  0.10415430D-03
  0.54685298D-03  0.12251247D-14 -0.17878852D-02  0.55739487D-04  0.96546113D-03
 -0.49576594D-15 -0.12329198D-02 -0.37155448D-02 -0.82338138D-03  0.89985923D-04
  0.85709281D-17 -0.69373142D-16  0.15348190D-03 -0.88232031D-03  0.41937568D-03
 -0.30137380D-04 -0.96630869D-16 -0.26612421D-15 -0.63600708D-04  0.21432593D-02
 -0.12504374D-14  0.49881664D-04 -0.86815534D-03 -0.91435639D-15  0.31621028D-03
  0.31779121D-03 -0.10664682D-14 -0.47957834D-15 -0.43974384D-04 -0.79323515D-04
 -0.11694377D-03 -0.43035636D-03 -0.68414859D-04  0.28626058D-04  0.60416546D-03
  0.36687763D-03 -0.43974384D-04 -0.79323515D-04 -0.11694377D-03 -0.43035637D-03
 -0.68414859D-04  0.28626058D-04  0.60416546D-03 -0.36687763D-03  0.43888249D+00
  0.81702049D+00  0.13439910D+01  0.18047544D+01  0.16992443D+01  0.13963821D+00
  0.36135736D+00  0.96019416D+00 -0.12944088D-02  0.20851427D-02  0.19511798D-02
  0.15112642D-02  0.46113987D-03  0.43151330D-03  0.33422373D-03  0.40651423D-14
  0.38039716D-14  0.29463230D-14  0.16139598D-01 -0.22066309D-02 -0.18077345D-03
 -0.36101322D-14  0.10168086D-01  0.11628600D-03  0.23895528D-03  0.79306964D-15
 -0.31038382D-01 -0.29864039D-01 -0.29975928D-01  0.10923374D-02  0.19539377D-15
 -0.39875036D-15 -0.33720304D-02 -0.31755911D-02 -0.29681876D-02  0.65670227D-04
 -0.34800407D-15 -0.33301377D-15  0.23077188D-02  0.20114137D-02  0.32158756D-14
  0.15276631D-02 -0.17626680D-02  0.29725355D-14 -0.23522398D-02 -0.27488537D-02
  0.28765154D-14  0.59762807D-15 -0.19057165D-03 -0.34376407D-03 -0.50679885D-03
 -0.17138561D-02 -0.38223041D-03 -0.14943533D-02 -0.11944240D-02  0.25254843D-02
 -0.19057165D-03 -0.34376407D-03 -0.50679885D-03 -0.17138561D-02 -0.38223041D-03
 -0.14943533D-02 -0.11944240D-02 -0.25254843D-02 -0.81372514D-02 -0.15148249D-01
 -0.24918727D-01 -0.33461668D-01 -0.31505422D-01 -0.25890102D-02 -0.63845313D-02
 -0.16964895D-01  0.22869864D-04  0.43102699D-04  0.40333507D-04  0.31239860D-04
 -0.10868346D-03 -0.10170094D-03 -0.78771307D-04 -0.18896482D-14 -0.17682452D-14
 -0.13695742D-14 -0.95266921D-04 -0.77149418D-03  0.47291304D-03  0.18470460D-14
 -0.11026540D-02  0.62248944D-03 -0.43050468D-03 -0.27389756D-15  0.10711186D-02
  0.11071677D-02  0.17040753D-02  0.44868221D-03 -0.66787113D-15 -0.43242414D-15
 -0.44998194D-03  0.54318678D-03  0.33381740D-03  0.60156479D-03  0.14240090D-15
  0.21966728D-16  0.18551609D-02 -0.23319509D-03 -0.14937350D-14  0.44900895D-03
 -0.25895397D-02 -0.17851554D-14 -0.24016706D-03  0.49289788D-03 -0.15729075D-14
 -0.30251307D-15 -0.16328090D-04 -0.29453546D-04 -0.43422290D-04 -0.16979319D-03
 -0.34456076D-04  0.24795199D-03 -0.17415492D-03  0.20816026D-04 -0.16328090D-04
 -0.29453546D-04 -0.43422290D-04 -0.16979319D-03 -0.34456076D-04  0.24795199D-03
 -0.17415492D-03 -0.20816026D-04 -0.27486247D-03 -0.51168200D-03 -0.84171209D-03
 -0.11302781D-02 -0.10641994D-02 -0.87452350D-04 -0.10957523D-03 -0.29116191D-03
  0.39250659D-06 -0.68455447D-04 -0.64057432D-04 -0.49614957D-04 -0.20483885D-03
 -0.19167869D-03 -0.14846255D-03 -0.35453030D-15 -0.33175301D-15 -0.25695553D-15
 -0.31855716D-03  0.14607381D-03 -0.49388550D-04  0.16845665D-15 -0.62193394D-03
 -0.13700401D-05 -0.65983356D-04  0.10585955D-15  0.19728923D-03  0.47089042D-05
  0.40693137D-03  0.48665246D-03 -0.80080096D-16  0.39720305D-16  0.92019671D-04
  0.34881466D-04 -0.13627365D-03  0.15563623D-04 -0.96870976D-17  0.21308905D-17
  0.42194429D-05 -0.25829484D-03 -0.28118407D-15  0.89093702D-04 -0.19916299D-03
 -0.30162359D-16  0.25250082D-03 -0.20553928D-03 -0.94947932D-17 -0.67977375D-16
  0.93675787D-05  0.16897776D-04  0.24911775D-04  0.24647142D-03  0.26863014D-04
 -0.10574960D-04  0.16024189D-03  0.34483740D-04  0.93675787D-05  0.16897776D-04
  0.24911775D-04  0.24647142D-03  0.26863014D-04 -0.10574960D-04  0.16024189D-03
 -0.34483740D-04
MO    3     MO 0.0        OCC NO =    1.0000000  ORB. ENERGY =  -10.174149
  0.43865824D+00  0.81660304D+00  0.13433043D+01  0.18038323D+01  0.16983761D+01
  0.13956687D+00  0.36158528D+00  0.96079980D+00 -0.12952253D-02  0.12993846D-02
  0.12159038D-02  0.94176451D-03 -0.72232254D-03 -0.67591593D-03 -0.52352301D-03
 -0.58463682D-15 -0.54707602D-15 -0.42373152D-15  0.16923186D-01 -0.77501598D-03
  0.38947944D-03 -0.23017159D-15  0.90456752D-02  0.14022872D-03 -0.63908202D-03
 -0.59023854D-15 -0.31430877D-01 -0.29127643D-01 -0.30009194D-01  0.71603763D-04
  0.59031021D-16 -0.23920353D-15 -0.38825935D-02 -0.25687996D-02 -0.26097617D-02
  0.13917331D-03 -0.30581152D-15 -0.82388315D-15  0.64971517D-03 -0.28044339D-02
 -0.97842853D-15  0.11700450D-02 -0.10255811D-02  0.18496795D-15  0.18902421D-02
  0.40503660D-02 -0.67647459D-15 -0.44357299D-15 -0.24322696D-03 -0.43874674D-03
 -0.64682834D-03 -0.16471512D-02 -0.34457051D-03  0.37044551D-03  0.17626677D-02
  0.26054959D-02 -0.24322696D-03 -0.43874674D-03 -0.64682834D-03 -0.16471512D-02
 -0.34457051D-03  0.37044551D-03  0.17626677D-02 -0.26054959D-02 -0.29353276D-01
 -0.54643848D-01 -0.89888616D-01 -0.12070532D+00 -0.11364861D+00 -0.93392631D-02
 -0.23962355D-01 -0.63672465D-01  0.85834931D-04 -0.65497493D-04 -0.61289516D-04
 -0.47471099D-04  0.40614378D-03  0.38005051D-03  0.29436381D-03 -0.33330462D-14
 -0.31189101D-14 -0.24157164D-14 -0.13127790D-02  0.38984124D-04 -0.68459867D-03
  0.31409744D-14 -0.19819491D-02  0.18959470D-03 -0.12990706D-02  0.25894904D-15
  0.25068618D-02  0.28293708D-03  0.29113985D-02  0.18815776D-03 -0.67932703D-15
 -0.11536431D-14  0.68137997D-03 -0.10804441D-02  0.38400264D-03 -0.25959848D-03
 -0.10962100D-15 -0.33420825D-15  0.13986170D-03 -0.26391995D-02 -0.20408035D-14
 -0.11176508D-03  0.45491291D-03 -0.20997323D-14 -0.21383350D-03  0.97698483D-03
 -0.26497808D-14  0.13360421D-14  0.22088853D-05  0.39845139D-05  0.58742238D-05
 -0.83872689D-04 -0.97494501D-04  0.11832882D-03 -0.18574466D-03 -0.13643529D-03
  0.22088853D-05  0.39845139D-05  0.58742238D-05 -0.83872689D-04 -0.97494501D-04
  0.11832882D-03 -0.18574466D-03  0.13643529D-03  0.10475846D-02  0.19501759D-02
  0.32080210D-02  0.43078338D-02  0.40559880D-02  0.33330753D-03  0.96251089D-03
  0.25575717D-02 -0.34477853D-05  0.36113856D-03  0.33793671D-03  0.26174504D-03
 -0.43841543D-03 -0.41024882D-03 -0.31775357D-03  0.33755302D-14  0.31586646D-14
  0.24465078D-14 -0.26824408D-03 -0.93298053D-04  0.23761487D-03 -0.27313405D-14
  0.24696321D-03  0.13126841D-03 -0.56817856D-03  0.11872706D-15  0.14637169D-03
 -0.39575242D-03  0.44532637D-03  0.36812614D-03 -0.15080689D-16 -0.12695849D-15
 -0.12459132D-03  0.45716219D-03 -0.21350220D-03  0.10221326D-03  0.41309602D-15
  0.37171830D-15  0.36881829D-03 -0.75931867D-03  0.27073108D-14  0.21787499D-03
 -0.46981080D-03  0.28473337D-14  0.26183773D-03 -0.47778650D-03  0.21112693D-14
  0.10332913D-14  0.21809499D-04  0.39341224D-04  0.57999334D-04  0.14211199D-03
 -0.15052067D-04  0.31262094D-04 -0.23948338D-03 -0.10525622D-03  0.21809499D-04
  0.39341224D-04  0.57999334D-04  0.14211199D-03 -0.15052067D-04  0.31262094D-04
 -0.23948338D-03  0.10525622D-03 -0.23159749D-03 -0.43114023D-03 -0.70922162D-03
 -0.95236561D-03 -0.89668812D-03 -0.73686832D-04 -0.72362933D-04 -0.19228186D-03
  0.25920938D-06  0.18997875D-03  0.17777330D-03  0.13769229D-03  0.85477287D-04
  0.79985681D-04  0.61952001D-04 -0.19540928D-14 -0.18285494D-14 -0.14162822D-14
 -0.33995083D-03 -0.15077678D-03 -0.43970017D-03  0.88980965D-15 -0.90071352D-03
  0.35485421D-04 -0.28535628D-03 -0.16161465D-15  0.28018372D-03 -0.19716751D-03
  0.36405121D-03  0.22629344D-03 -0.37264222D-15  0.34231228D-15  0.37089895D-04
 -0.11673075D-03  0.17452276D-04 -0.26835778D-04  0.90457648D-16  0.55701162D-15
  0.16451931D-03 -0.30220353D-03 -0.12423056D-14  0.98769023D-04 -0.16953643D-03
 -0.74172763D-15  0.28111039D-03 -0.12280106D-03 -0.11070294D-14 -0.17879096D-15
 -0.72260361D-05 -0.13034738D-04 -0.19216640D-04  0.10405351D-03 -0.88462267D-05
 -0.32767403D-04  0.12773849D-04 -0.19530102D-04 -0.72260361D-05 -0.13034738D-04
 -0.19216640D-04  0.10405351D-03 -0.88462267D-05 -0.32767403D-04  0.12773849D-04
  0.19530102D-04
MO    4     MO 0.0        OCC NO =    1.0000000  ORB. ENERGY =  -10.160828
  0.21914347D-03  0.40795590D-03  0.67108363D-03  0.90115268D-03  0.84846922D-03
  0.69724364D-04  0.29875719D-03  0.79385380D-03 -0.10701704D-05 -0.16630670D-03
 -0.15562209D-03 -0.12053533D-03 -0.37645071D-04 -0.35226511D-04 -0.27284295D-04
  0.20269405D-14  0.18967169D-14  0.14690805D-14 -0.30951117D-03  0.12749987D-03
  0.38017279D-03 -0.17997996D-14 -0.83731509D-03 -0.31122871D-04  0.25254073D-03
 -0.16568639D-16  0.23989630D-03 -0.19083007D-03  0.33667106D-03  0.25309165D-03
  0.19425947D-15 -0.41046413D-15  0.37029949D-04 -0.93561777D-04  0.90171844D-05
 -0.21558907D-04  0.30219621D-16 -0.17057331D-16 -0.15162162D-03  0.28978475D-03
  0.14301306D-14 -0.11048223D-03  0.18133581D-03  0.15777005D-14 -0.27332480D-03
  0.15669892D-03  0.13998488D-14 -0.27457801D-16 -0.64741734D-05 -0.11678485D-04
 -0.17217166D-04  0.10420451D-03 -0.51618925D-05  0.31697109D-04 -0.19338029D-04
  0.22275394D-04 -0.64741734D-05 -0.11678485D-04 -0.17217166D-04  0.10420451D-03
 -0.51618925D-05  0.31697109D-04 -0.19338029D-04 -0.22275394D-04  0.16090657D-03
  0.29954251D-03  0.49274461D-03  0.66167331D-03  0.62299037D-03  0.51195266D-04
  0.23755508D-03  0.63122833D-03 -0.85093988D-06 -0.30627544D-03 -0.28659835D-03
 -0.22198150D-03  0.36732858D-03  0.34372905D-03  0.26623143D-03  0.20233911D-14
  0.18933955D-14  0.14665080D-14 -0.19451833D-03  0.12799484D-03 -0.22134999D-03
 -0.18986248D-14  0.20032137D-04 -0.16989437D-03  0.55005771D-03  0.10687586D-15
  0.22880202D-03 -0.28788847D-03  0.50457012D-03  0.29294757D-03 -0.23579144D-15
 -0.20413066D-15 -0.11742185D-03  0.46325553D-03 -0.16086008D-03  0.14285589D-03
 -0.15261196D-15  0.35630602D-16 -0.41778414D-03  0.65140078D-03  0.14528398D-14
 -0.18798927D-03  0.54465397D-03  0.12532460D-14 -0.19076697D-03  0.38928447D-03
  0.14818932D-14 -0.42265357D-15  0.16226636D-04  0.29270536D-04  0.43152486D-04
  0.15012908D-03 -0.11094294D-04 -0.24209960D-04  0.22561752D-03  0.82364830D-04
  0.16226636D-04  0.29270536D-04  0.43152486D-04  0.15012908D-03 -0.11094294D-04
 -0.24209960D-04  0.22561752D-03 -0.82364830D-04 -0.37329056D-02 -0.69491503D-02
 -0.11431287D-01 -0.15350300D-01 -0.14452886D-01 -0.11876898D-02 -0.28746286D-02
 -0.76384265D-02  0.10297133D-04 -0.99301474D-04 -0.92921714D-04 -0.71971459D-04
 -0.34299023D-03 -0.32095435D-03 -0.24859155D-03 -0.73480724D-14 -0.68759853D-14
 -0.53257164D-14 -0.48347877D-03  0.13248914D-03  0.56640952D-03  0.70066128D-14
 -0.10591966D-02 -0.19027426D-03  0.11779546D-02 -0.63320711D-16  0.72854891D-03
 -0.14008371D-02  0.11166187D-02  0.21849099D-03 -0.22417874D-15 -0.37103545D-15
  0.40998200D-03 -0.12371361D-02  0.18388477D-03 -0.23892002D-03  0.13977172D-15
  0.18996799D-15 -0.28737222D-03  0.25412140D-02 -0.55000386D-14 -0.24945877D-04
 -0.27460774D-03 -0.53784170D-14  0.30361517D-03 -0.69624119D-03 -0.53366804D-14
 -0.18866176D-15 -0.76515610D-05 -0.13802324D-04 -0.20348264D-04 -0.19306623D-03
 -0.11684717D-03 -0.15371827D-04  0.25171657D-03 -0.23630097D-05 -0.76515610D-05
 -0.13802324D-04 -0.20348264D-04 -0.19306623D-03 -0.11684717D-03 -0.15371827D-04
  0.25171657D-03  0.23630097D-05  0.44000928D+00  0.81911811D+00  0.13474416D+01
  0.18093879D+01  0.17036069D+01  0.13999672D+00  0.36287371D+00  0.96422340D+00
 -0.12998405D-02 -0.90046685D-03 -0.84261511D-03 -0.65263797D-03  0.65205766D-03
  0.61016532D-03  0.47259662D-03 -0.16684755D-14 -0.15612820D-14 -0.12092732D-14
  0.16072174D-01  0.19516790D-03 -0.31304176D-03  0.19274839D-14  0.79244282D-02
 -0.12321022D-03  0.51281602D-03 -0.22725910D-15 -0.32319833D-01 -0.25913278D-01
 -0.26622627D-01  0.87051592D-03  0.68545015D-16  0.90364689D-15 -0.34324945D-02
 -0.23335300D-02 -0.22934054D-02  0.10955531D-03  0.62115116D-17  0.14031224D-15
 -0.20035839D-03  0.24915197D-02 -0.18745874D-14 -0.71560035D-03  0.98928872D-03
 -0.14803009D-14 -0.14136412D-02 -0.40573927D-02 -0.21591180D-14 -0.20852754D-15
 -0.23801095D-03 -0.42933780D-03 -0.63295708D-03 -0.15935278D-02 -0.29836928D-03
 -0.35418280D-03 -0.17410641D-02 -0.25649601D-02 -0.23801095D-03 -0.42933780D-03
 -0.63295708D-03 -0.15935278D-02 -0.29836928D-03 -0.35418280D-03 -0.17410641D-02
  0.25649601D-02
MO    5     MO 0.0        OCC NO =    1.0000000  ORB. ENERGY =   -0.793996
 -0.40191904D-01 -0.74820960D-01 -0.12307978D+00 -0.16527548D+00 -0.15561310D+00
 -0.12787764D-01 -0.62005628D-01 -0.16476056D+00  0.22210875D-03  0.12983887D-01
  0.12149719D-01  0.94104270D-02 -0.81026065D-01 -0.75820433D-01 -0.58725856D-01
  0.41703358D-14  0.39024068D-14  0.30225649D-14  0.88838100D-01  0.37409595D-02
 -0.19759374D-01 -0.56609194D-14  0.13626607D-01  0.37902936D-03 -0.17367393D-02
 -0.10004148D-15  0.20675030D-02  0.15994604D-01  0.33008808D-02 -0.21775307D-02
  0.25141904D-16 -0.13160708D-14  0.21268245D-02  0.29899579D-02  0.21417661D-02
 -0.57096682D-03  0.47845590D-16  0.76501232D-15  0.18874659D-03 -0.43639073D-02
  0.38304284D-14  0.12008069D-02 -0.28752723D-02  0.37809193D-14  0.17368499D-02
  0.44002504D-02  0.43427811D-14 -0.39164531D-15  0.73164070D-02  0.13197754D-01
  0.19456969D-01  0.80071319D-02  0.70450670D-03 -0.45199780D-05 -0.27278401D-02
 -0.26975432D-02  0.73164070D-02  0.13197754D-01  0.19456969D-01  0.80071319D-02
  0.70450670D-03 -0.45199780D-05 -0.27278401D-02  0.26975432D-02 -0.58206517D-01
 -0.10835683D+00 -0.17824597D+00 -0.23935443D+00 -0.22536122D+00 -0.18519431D-01
 -0.89533541D-01 -0.23790738D+00  0.32071577D-03  0.37969303D-01  0.35529913D-01
  0.27519291D-01  0.27195917D-01  0.25448678D-01  0.19710984D-01 -0.15358542D-14
 -0.14371811D-14 -0.11131523D-14  0.13118817D+00  0.10438554D-01  0.68668545D-02
  0.10817098D-14  0.13781109D-01  0.10904960D-02  0.41885271D-03  0.41398174D-14
  0.89139132D-02  0.15178505D-01  0.62454542D-02 -0.22612224D-02 -0.28748851D-15
 -0.16735426D-16  0.46472322D-02  0.57567792D-02  0.43379260D-02 -0.59762437D-03
 -0.15527121D-14 -0.20444922D-14  0.37618395D-02  0.50944145D-02  0.28495643D-15
  0.27823371D-02 -0.52982590D-02 -0.33483723D-16 -0.68053539D-02 -0.59303374D-02
 -0.27578537D-15  0.17928258D-14  0.11867124D-01  0.21406598D-01  0.31558968D-01
  0.13575286D-01  0.13392152D-02  0.32934217D-02  0.22693767D-02 -0.42608283D-02
  0.11867124D-01  0.21406598D-01  0.31558968D-01  0.13575286D-01  0.13392152D-02
  0.32934217D-02  0.22693767D-02  0.42608283D-02 -0.54176989D-01 -0.10085549D+00
 -0.16590634D+00 -0.22278437D+00 -0.20975988D+00 -0.17237366D-01 -0.83434787D-01
 -0.22170185D+00  0.29886958D-03 -0.45933604D-01 -0.42982536D-01 -0.33291636D-01
 -0.49708997D-02 -0.46515373D-02 -0.36027955D-02 -0.56029359D-14 -0.52429675D-14
 -0.40608810D-14  0.12362524D+00 -0.14436193D-01 -0.85845396D-03  0.57119488D-14
  0.12816379D-01 -0.15552937D-02  0.16933933D-03 -0.29486525D-14  0.11201004D-01
  0.13020292D-01  0.57110777D-02 -0.56629476D-02 -0.11935340D-14 -0.71134138D-15
  0.50382590D-02  0.52435113D-02  0.41084682D-02 -0.10431037D-02  0.11135821D-14
  0.90510411D-15 -0.33400645D-02 -0.40831136D-02 -0.27293717D-14 -0.19914094D-02
  0.47426671D-02 -0.36837112D-14  0.62686780D-02  0.61183678D-02 -0.35692455D-14
  0.91375353D-15  0.11053970D-01  0.19939785D-01  0.29396499D-01  0.12692474D-01
  0.12944936D-02 -0.33855229D-02 -0.17653686D-02  0.40706124D-02  0.11053970D-01
  0.19939785D-01  0.29396499D-01  0.12692474D-01  0.12944936D-02 -0.33855229D-02
 -0.17653686D-02 -0.40706124D-02 -0.28163051D-01 -0.52428133D-01 -0.86243785D-01
 -0.11581093D+00 -0.10904036D+00 -0.89605719D-02 -0.43198096D-01 -0.11478543D+00
  0.15473878D-03 -0.10912651D-01 -0.10211552D-01 -0.79092420D-02  0.74270150D-01
  0.69498562D-01  0.53829322D-01  0.33206438D-15  0.31073045D-15  0.24067274D-15
  0.58775377D-01 -0.34404938D-02  0.17708739D-01 -0.15622929D-14  0.10293050D-01
 -0.27841026D-03  0.17378554D-02  0.20043041D-14 -0.87015662D-02  0.16400017D-01
  0.43255506D-02 -0.37925924D-03 -0.43265567D-16 -0.80832912D-16 -0.37106308D-03
  0.23180530D-02  0.14062658D-02 -0.26397607D-03 -0.17391172D-15  0.11329801D-14
 -0.21975354D-04  0.40114770D-02 -0.30926505D-15 -0.71614498D-03  0.80272330D-03
  0.49675376D-15 -0.13956585D-02 -0.18120215D-02  0.29724182D-15 -0.57911872D-15
  0.49991833D-02  0.90178134D-02  0.13294634D-01  0.55360007D-02  0.47238228D-03
  0.20691544D-04  0.21705978D-02  0.18772632D-02  0.49991833D-02  0.90178134D-02
  0.13294634D-01  0.55360007D-02  0.47238228D-03  0.20691544D-04  0.21705978D-02
 -0.18772632D-02
MO    6     MO 0.0        OCC NO =    1.0000000  ORB. ENERGY =   -0.715863
 -0.55491006D-01 -0.10330166D+00 -0.16993026D+00 -0.22818781D+00 -0.21484743D+00
 -0.17655443D-01 -0.85921992D-01 -0.22831082D+00  0.30777893D-03  0.10263407D-02
  0.96040202D-03  0.74386849D-03 -0.46515416D-01 -0.43526969D-01 -0.33713320D-01
  0.37853673D-14  0.35421711D-14  0.27435485D-14  0.12803018D+00 -0.80252261D-03
 -0.12347759D-01 -0.41118121D-14  0.19985843D-01 -0.11842349D-03 -0.13030537D-02
  0.30188384D-14  0.44825020D-02  0.17713031D-01  0.10214401D-01  0.30598672D-02
  0.22629291D-16  0.17202487D-14  0.36302501D-02  0.51749955D-02  0.43071815D-02
  0.69979065D-03  0.24231326D-15  0.20130422D-14 -0.33857512D-05 -0.52866343D-02
  0.38417022D-14  0.35333364D-03 -0.11267759D-02  0.18334271D-14  0.24891523D-02
  0.87185143D-02  0.36747061D-14  0.97605380D-15  0.12717912D-01  0.22941299D-01
  0.33821522D-01  0.14643973D-01  0.16843313D-02 -0.50990590D-03 -0.36422698D-02
 -0.49605605D-02  0.12717912D-01  0.22941299D-01  0.33821522D-01  0.14643973D-01
  0.16843313D-02 -0.50990590D-03 -0.36422698D-02  0.49605605D-02 -0.30363860D-01
 -0.56525143D-01 -0.92983329D-01 -0.12486101D+00 -0.11756134D+00 -0.96607982D-02
 -0.47030125D-01 -0.12496785D+00  0.16846539D-03 -0.65781516D-01 -0.61555292D-01
 -0.47676953D-01  0.12844002D+00  0.12018821D+00  0.93090414D-01  0.40803282D-14
  0.38181818D-14  0.29573294D-14  0.70656434D-01 -0.17191198D-01  0.32723291D-01
 -0.28175390D-14  0.50120389D-02 -0.23868478D-02  0.32860596D-02 -0.34723592D-15
 -0.65238632D-02  0.16375400D-01  0.45704145D-02  0.10450777D-01  0.56546876D-15