Title Card Required                                                     
Freq      RB3LYP                                                      6-31G(d)            
Number of atoms                            I                5
Info1-9                                    I   N=           9
          19          13        1002           0           0         100
           6          18        -502
Charge                                     I                0
Multiplicity                               I                1
Number of electrons                        I               26
Number of alpha electrons                  I               13
Number of beta electrons                   I               13
Number of basis functions                  I               40
Number of independent functions            I               40
Number of point charges in /Mol/           I                0
Number of translation vectors              I                0
Atomic numbers                             I   N=           5
           6           1           1           1          17
Nuclear charges                            R   N=           5
  6.00000000E+00  1.00000000E+00  1.00000000E+00  1.00000000E+00  1.70000000E+01
Current cartesian coordinates              R   N=          15
  0.00000000E+00  0.00000000E+00 -2.15287667E+00  1.12642530E-08  1.95378621E+00
 -2.80712210E+00 -1.69202849E+00 -9.76893093E-01 -2.80712210E+00  1.69202848E+00
 -9.76893113E-01 -2.80712210E+00  0.00000000E+00  0.00000000E+00  1.25521331E+00
Force Field                                I                0
Int Atom Types                             I   N=           5
           0           0           0           0           0
MM charges                                 R   N=           5
  0.00000000E+00  0.00000000E+00  0.00000000E+00  0.00000000E+00  0.00000000E+00
Integer atomic weights                     I   N=           5
          12           1           1           1          35
Real atomic weights                        R   N=           5
  1.20000000E+01  1.00782504E+00  1.00782504E+00  1.00782504E+00  3.49688527E+01
Atom fragment info                         I   N=           5
           0           0           0           0           0
Atom residue num                           I   N=           5
           0           0           0           0           0
Nuclear spins                              I   N=           5
           0           1           1           1           3
Nuclear ZEff                               R   N=           5
 -3.60000000E+00 -1.00000000E+00 -1.00000000E+00 -1.00000000E+00 -1.42400000E+01
Nuclear ZNuc                               R   N=           5
  6.00000000E+00  1.00000000E+00  1.00000000E+00  1.00000000E+00  1.70000000E+01
Nuclear QMom                               R   N=           5
  0.00000000E+00  0.00000000E+00  0.00000000E+00  0.00000000E+00 -8.16500000E+00
Nuclear GFac                               R   N=           5
  0.00000000E+00  2.79284600E+00  2.79284600E+00  2.79284600E+00  8.21874000E-01
MicOpt                                     I   N=           5
          -1          -1          -1          -1          -1
SymInf integers                            I   N=          26
           2           2           1           1           1          -1
           1           1           0           0           0           0
           0           0           0           0           0           0
           0           0           0           0           0           0
           0           0
RotTr to input orientation                 R   N=          12
  1.00000000E+00 -5.76534576E-09  0.00000000E+00  5.76534576E-09  1.00000000E+00
  0.00000000E+00  0.00000000E+00  0.00000000E+00  1.00000000E+00 -1.38334914E-16
  7.26817596E-10  2.76918296E-02
Number of contracted shells                I               15
Number of primitive shells                 I               40
Pure/Cartesian d shells                    I                1
Pure/Cartesian f shells                    I                0
Highest angular momentum                   I                2
Largest degree of contraction              I                6
Shell types                                I   N=          15
           0          -1          -1           2           0           0
           0           0           0           0           0          -1
          -1          -1           2
Number of primitives per shell             I   N=          15
           6           3           1           1           3           1
           3           1           3           1           6           6
           3           1           1
Shell to atom map                          I   N=          15
           1           1           1           1           2           2
           3           3           4           4           5           5
           5           5           5
Primitive exponents                        R   N=          40
  3.04752488E+03  4.57369518E+02  1.03948685E+02  2.92101553E+01  9.28666296E+00
  3.16392696E+00  7.86827235E+00  1.88128854E+00  5.44249258E-01  1.68714478E-01
  8.00000000E-01  1.87311370E+01  2.82539436E+00  6.40121692E-01  1.61277759E-01
  1.87311370E+01  2.82539436E+00  6.40121692E-01  1.61277759E-01  1.87311370E+01
  2.82539436E+00  6.40121692E-01  1.61277759E-01  2.51801000E+04  3.78035000E+03
  8.60474000E+02  2.42145000E+02  7.73349000E+01  2.62470000E+01  4.91765000E+02
  1.16984000E+02  3.74153000E+01  1.37834000E+01  5.45215000E+00  2.22588000E+00
  3.18649000E+00  1.14427000E+00  4.20377000E-01  1.42657000E-01  7.50000000E-01
Contraction coefficients                   R   N=          40
  1.83473713E-03  1.40373228E-02  6.88426223E-02  2.32184443E-01  4.67941348E-01
  3.62311985E-01 -1.19332420E-01 -1.60854152E-01  1.14345644E+00  1.00000000E+00
  1.00000000E+00  3.34946043E-02  2.34726953E-01  8.13757326E-01  1.00000000E+00
  3.34946043E-02  2.34726953E-01  8.13757326E-01  1.00000000E+00  3.34946043E-02
  2.34726953E-01  8.13757326E-01  1.00000000E+00  1.83295985E-03  1.40341988E-02
  6.90973943E-02  2.37451980E-01  4.83033960E-01  3.39855972E-01 -2.29739142E-03
 -3.07137189E-02 -1.12528069E-01  4.50163278E-02  5.89353363E-01  4.65206287E-01
 -2.51828028E-01  6.15892514E-02  1.06018433E+00  1.00000000E+00  1.00000000E+00
P(S=P) Contraction coefficients            R   N=          40
  0.00000000E+00  0.00000000E+00  0.00000000E+00  0.00000000E+00  0.00000000E+00
  0.00000000E+00  6.89990666E-02  3.16423961E-01  7.44308291E-01  1.00000000E+00
  0.00000000E+00  0.00000000E+00  0.00000000E+00  0.00000000E+00  0.00000000E+00
  0.00000000E+00  0.00000000E+00  0.00000000E+00  0.00000000E+00  0.00000000E+00
  0.00000000E+00  0.00000000E+00  0.00000000E+00  0.00000000E+00  0.00000000E+00
  0.00000000E+00  0.00000000E+00  0.00000000E+00  0.00000000E+00  3.98940088E-03
  3.03177067E-02  1.29880029E-01  3.27951072E-01  4.53527100E-01  2.52154056E-01
 -1.42993147E-02  3.23572333E-01  7.43507765E-01  1.00000000E+00  0.00000000E+00
Coordinates of each shell                  R   N=          45
  0.00000000E+00  0.00000000E+00 -2.15287667E+00  0.00000000E+00  0.00000000E+00
 -2.15287667E+00  0.00000000E+00  0.00000000E+00 -2.15287667E+00  0.00000000E+00
  0.00000000E+00 -2.15287667E+00  0.00000000E+00  1.95378621E+00 -2.80712210E+00
  0.00000000E+00  1.95378621E+00 -2.80712210E+00 -1.69202849E+00 -9.76893103E-01
 -2.80712210E+00 -1.69202849E+00 -9.76893103E-01 -2.80712210E+00  1.69202849E+00
 -9.76893103E-01 -2.80712210E+00  1.69202849E+00 -9.76893103E-01 -2.80712210E+00
  0.00000000E+00  0.00000000E+00  1.25521331E+00  0.00000000E+00  0.00000000E+00
  1.25521331E+00  0.00000000E+00  0.00000000E+00  1.25521331E+00  0.00000000E+00
  0.00000000E+00  1.25521331E+00  0.00000000E+00  0.00000000E+00  1.25521331E+00
Constraint Structure                       R   N=          15
  0.00000000E+00  0.00000000E+00 -2.15287667E+00  0.00000000E+00  1.95378621E+00
 -2.80712210E+00 -1.69202849E+00 -9.76893103E-01 -2.80712210E+00  1.69202849E+00
 -9.76893103E-01 -2.80712210E+00  0.00000000E+00  0.00000000E+00  1.25521331E+00
Num ILSW                                   I              100
ILSW                                       I   N=         100
           0           1           0           0           2           0
           0           0           0           0         402          -1
           0           0           0           0           2           0
           0           0           1           0           1           0
           1           0           0           0           0           0
           0           0      100000           0          -1           0
           0           0           0           0           0           0
           0           0           0           1           0           0
           0           0           1           0           0           0
           0           0           4          41           0           0
           0           0           5           0           0           0
           0           0           0           0           0           0
           0           0           0           0           0           0
           0           0           0           0           0           0
           0           0           0           0           0           0
           0           0           0           0           0           0
           0           0           0           0
Num RLSW                                   I               41
RLSW                                       R   N=          41
  8.00000000E-01  7.20000000E-01  1.00000000E+00  8.10000000E-01  2.00000000E-01
  0.00000000E+00  0.00000000E+00  1.00000000E+00  0.00000000E+00  0.00000000E+00
  0.00000000E+00  0.00000000E+00  1.00000000E+00  0.00000000E+00  0.00000000E+00
  0.00000000E+00  0.00000000E+00  1.00000000E+00  0.00000000E+00  0.00000000E+00
  0.00000000E+00  0.00000000E+00  1.00000000E+00  0.00000000E+00  0.00000000E+00
  0.00000000E+00  0.00000000E+00  1.00000000E+00  0.00000000E+00  0.00000000E+00
  0.00000000E+00  0.00000000E+00  1.00000000E+00  0.00000000E+00  0.00000000E+00
  0.00000000E+00  0.00000000E+00  0.00000000E+00  1.00000000E+00  1.00000000E+00
  0.00000000E+00
MxBond                                     I                4
NBond                                      I   N=           5
           4           1           1           1           1
IBond                                      I   N=          20
           2           3           4           5           1           0
           0           0           1           0           0           0
           1           0           0           0           1           0
           0           0
RBond                                      R   N=          20
  1.00000000E+00  1.00000000E+00  1.00000000E+00  1.00000000E+00  1.00000000E+00
  0.00000000E+00  0.00000000E+00  0.00000000E+00  1.00000000E+00  0.00000000E+00
  0.00000000E+00  0.00000000E+00  1.00000000E+00  0.00000000E+00  0.00000000E+00
  0.00000000E+00  1.00000000E+00  0.00000000E+00  0.00000000E+00  0.00000000E+00
Virial Ratio                               R      2.003668106296129E+00
SCF Energy                                 R     -5.001085326247880E+02
Total Energy                               R     -5.001085326247880E+02
RMS Force                                  R      5.651277657094041E-05
RMS Density                                R      4.822161081164295E-09
Job Status                                 I                1
Nuclear derivative order                   I                2
External E-field                           R   N=          35
  0.00000000E+00  0.00000000E+00  0.00000000E+00  0.00000000E+00  0.00000000E+00
  0.00000000E+00  0.00000000E+00  0.00000000E+00  0.00000000E+00  0.00000000E+00
  0.00000000E+00  0.00000000E+00  0.00000000E+00  0.00000000E+00  0.00000000E+00
  0.00000000E+00  0.00000000E+00  0.00000000E+00  0.00000000E+00  0.00000000E+00
  0.00000000E+00  0.00000000E+00  0.00000000E+00  0.00000000E+00  0.00000000E+00
  0.00000000E+00  0.00000000E+00  0.00000000E+00  0.00000000E+00  0.00000000E+00
  0.00000000E+00  0.00000000E+00  0.00000000E+00  0.00000000E+00  0.00000000E+00
IOpCl                                      I                0
IROHF                                      I                0
Alpha Orbital Energies                     R   N=          40
 -1.01535226E+02 -1.02460557E+01 -9.45159791E+00 -7.21581217E+00 -7.20555230E+00
 -7.20555230E+00 -8.48304204E-01 -6.80363475E-01 -4.52329665E-01 -4.52329665E-01
 -4.12102990E-01 -2.96446679E-01 -2.96446679E-01  2.58204760E-02  1.06345686E-01
  1.42678157E-01  1.42678157E-01  4.02380737E-01  4.43437940E-01  4.60929018E-01
  4.60929018E-01  5.26555260E-01  5.26555260E-01  5.55301559E-01  8.37203096E-01
  8.37203096E-01  8.75665065E-01  8.96575205E-01  8.96575205E-01  9.33490169E-01
  9.33490169E-01  1.03035218E+00  1.24128431E+00  1.68192477E+00  1.68192477E+00
  2.12433522E+00  2.20445497E+00  2.20445497E+00  4.08468806E+00  4.29918950E+00
Alpha MO coefficients                      R   N=        1600
 -8.96421842E-06  4.36455111E-05  0.00000000E+00 -1.21984430E-15  8.21625528E-05
  1.67075435E-04  0.00000000E+00 -1.41056060E-15 -6.60352247E-05 -1.35796948E-05
 -1.35796948E-05 -3.94076669E-05  0.00000000E+00  0.00000000E+00  7.61014469E-16
 -2.16471921E-05 -8.61787164E-05 -2.16471921E-05 -8.61787164E-05 -2.16471921E-05
 -8.61787164E-05  9.95998324E-01  1.51673493E-02  0.00000000E+00 -3.73709759E-16
 -5.28092300E-05 -2.10280433E-02  0.00000000E+00  3.56476064E-16  3.85348158E-05
  1.59496125E-03  0.00000000E+00  4.82440964E-16 -3.39707179E-05  7.56267309E-03
  7.56267309E-03  7.55204803E-03  0.00000000E+00  0.00000000E+00 -8.64219583E-17
  9.92920606E-01  4.95373177E-02  0.00000000E+00  2.65624900E-16  6.11835429E-04
 -1.50791965E-02  0.00000000E+00 -1.38143906E-15 -8.90354105E-04 -9.08425096E-03
 -9.08425096E-03 -9.36675078E-03  0.00000000E+00  0.00000000E+00  4.20233383E-17
 -9.61489278E-05  2.49349190E-03 -9.61489278E-05  2.49349190E-03 -9.61489278E-05
  2.49349190E-03 -9.41539879E-06 -3.10453927E-05  0.00000000E+00 -8.61900083E-17
 -3.45501707E-06  6.54362833E-05  0.00000000E+00 -1.02016461E-16 -1.54619186E-04
  2.80724884E-03  0.00000000E+00  2.16084755E-16 -1.75148223E-03 -1.63223869E-04
 -1.63223869E-04 -1.88056705E-04  0.00000000E+00  0.00000000E+00 -2.10080470E-16
 -5.86748816E-05  4.33143540E-04  0.00000000E+00  3.61717629E-15 -6.61510526E-04
  4.11484297E-04  0.00000000E+00  3.54566718E-15  1.51368620E-03  9.36798963E-06
  9.36798965E-06 -9.30273650E-04  0.00000000E+00  0.00000000E+00 -3.95935721E-15
 -1.18103261E-04  9.79882336E-04 -1.18103261E-04  9.79882336E-04 -1.18103261E-04
  9.79882336E-04 -2.84664043E-01  1.02221423E+00  0.00000000E+00  5.26054617E-15
 -5.96935933E-03  7.40602559E-02  0.00000000E+00 -4.33551824E-16 -1.04718723E-03
 -1.35416157E-02  0.00000000E+00 -1.69116757E-15  1.86603615E-03 -1.66490226E-02
 -1.66490226E-02 -1.60617381E-02  0.00000000E+00  0.00000000E+00 -1.85199681E-17
 -1.03621427E-04 -1.84128153E-03  0.00000000E+00 -2.70756463E-16  1.00448996E-03
  2.50212464E-03  0.00000000E+00 -2.92152234E-15  3.23107354E-04 -3.21214635E-04
 -3.21214635E-04  2.15619153E-03  0.00000000E+00  0.00000000E+00  8.38775729E-16
 -6.13800346E-05 -1.26819649E-03 -6.13800347E-05 -1.26819649E-03 -6.13800347E-05
 -1.26819649E-03 -1.79341193E-03  6.56913028E-03  0.00000000E+00 -7.10453175E-14
  9.90575398E-01 -1.28253018E-04  0.00000000E+00 -2.09783236E-15  3.00244803E-02
 -5.90002080E-05  0.00000000E+00  1.15222682E-15 -8.15323361E-03  2.33791730E-04
  2.33791730E-04 -1.29277221E-03  0.00000000E+00  0.00000000E+00 -3.82186831E-17
  3.76319053E-17  1.14066150E-15  0.00000000E+00 -8.20582855E-05 -3.15744975E-17
 -2.52807297E-15  0.00000000E+00  2.19181028E-04 -1.11073489E-16  9.71085385E-06
 -9.71085385E-06  1.48400039E-17  0.00000000E+00  0.00000000E+00 -2.69921092E-04
 -1.62644169E-04  8.59478028E-04  8.13220843E-05 -4.29739014E-04  8.13220843E-05
 -4.29739014E-04  1.83145373E-15 -4.67304729E-15  0.00000000E+00  9.91133227E-01
  7.09650841E-14 -1.93215942E-15  0.00000000E+00  2.81494946E-02  2.12052902E-15
  7.49699672E-16  0.00000000E+00 -7.75749878E-03 -1.48619786E-15  5.59651041E-06
 -5.59651041E-06  3.13276637E-16  0.00000000E+00  0.00000000E+00 -3.74622067E-04
  0.00000000E+00  0.00000000E+00 -8.20582855E-05  0.00000000E+00  0.00000000E+00
  0.00000000E+00  2.19181028E-04  0.00000000E+00  0.00000000E+00  0.00000000E+00
  0.00000000E+00  0.00000000E+00  1.12131282E-05 -2.69921092E-04  0.00000000E+00
  0.00000000E+00  0.00000000E+00  1.40853982E-04 -7.44329806E-04 -1.40853982E-04
  7.44329806E-04  0.00000000E+00  0.00000000E+00  9.91133227E-01  0.00000000E+00
  0.00000000E+00  0.00000000E+00  2.81494946E-02  0.00000000E+00  0.00000000E+00
  0.00000000E+00 -7.75749878E-03  0.00000000E+00  0.00000000E+00  0.00000000E+00
  0.00000000E+00  0.00000000E+00  6.46229358E-06 -3.74622067E-04  0.00000000E+00
 -1.10292677E-01  2.08971614E-01  0.00000000E+00  4.92710344E-15  8.02668126E-02
  2.01172475E-01  0.00000000E+00 -1.27622822E-14  2.44178649E-02 -3.14325857E-03
 -3.14325857E-03  1.16231584E-02  0.00000000E+00  0.00000000E+00  5.13636991E-15
  5.50158813E-02  2.11642585E-03  5.50158813E-02  2.11642585E-03  5.50158813E-02
  2.11642585E-03  6.99689925E-02 -3.14954228E-01  0.00000000E+00 -2.67902971E-16
  4.76092186E-02  6.25646284E-01  0.00000000E+00  1.99954368E-15 -1.13322490E-01
  2.19616425E-01  0.00000000E+00  5.84428573E-15 -4.53727113E-03 -1.68513463E-02
 -1.68513463E-02  2.67052899E-02  0.00000000E+00  0.00000000E+00 -1.07218866E-15
  1.65610903E-01 -3.28985453E-01  0.00000000E+00 -1.59913910E-14  1.04940126E-01
 -3.37716886E-01  0.00000000E+00  1.54422728E-14  3.05220862E-02 -6.23342849E-03
 -6.23342849E-03  1.25469371E-02  0.00000000E+00  0.00000000E+00 -2.20376782E-15
 -1.34963118E-01 -4.09678290E-02 -1.34963118E-01 -4.09678290E-02 -1.34963118E-01
 -4.09678290E-02  4.63081391E-02 -2.08829969E-01  0.00000000E+00  7.29778587E-16
 -4.21185270E-02  4.34038698E-01  0.00000000E+00 -6.96141124E-16  9.74424122E-02
  2.19014773E-01  0.00000000E+00 -6.95667159E-15  1.37248295E-02 -8.50834962E-04
 -8.50834962E-04 -1.85272465E-02  0.00000000E+00  0.00000000E+00  1.40692318E-15
  2.33589391E-14  4.22205027E-15  0.00000000E+00  4.44456977E-01 -8.03371730E-14
 -1.86076028E-13  0.00000000E+00  2.14696153E-01 -4.48924592E-14 -1.79968038E-02
  1.79968038E-02 -3.40077622E-15  0.00000000E+00  0.00000000E+00 -6.96562594E-03
  2.53741194E-01  1.78378150E-01 -1.26870597E-01 -8.91890748E-02 -1.26870597E-01
 -8.91890748E-02  3.51858322E-15 -2.26528139E-14  0.00000000E+00 -8.08428974E-02
 -5.70827977E-14  6.91323929E-14  0.00000000E+00  2.00773387E-01  1.39943465E-13
  7.98627852E-14  0.00000000E+00  8.02973247E-02  1.29245306E-14 -1.14450341E-03
  1.14450341E-03 -2.41206841E-14  0.00000000E+00  0.00000000E+00 -2.64044893E-02
  0.00000000E+00  0.00000000E+00  4.44456977E-01  0.00000000E+00  0.00000000E+00
  0.00000000E+00  2.14696153E-01  0.00000000E+00  0.00000000E+00  0.00000000E+00
  0.00000000E+00  0.00000000E+00 -2.07809190E-02 -6.96562594E-03  0.00000000E+00
  0.00000000E+00  0.00000000E+00 -2.19746320E-01 -1.54480009E-01  2.19746320E-01
  1.54480009E-01  0.00000000E+00  0.00000000E+00 -8.08428974E-02  0.00000000E+00
  0.00000000E+00  0.00000000E+00  2.00773387E-01  0.00000000E+00  0.00000000E+00
  0.00000000E+00  8.02973247E-02  0.00000000E+00  0.00000000E+00  0.00000000E+00
  0.00000000E+00  0.00000000E+00 -1.32155871E-03 -2.64044893E-02  0.00000000E+00
  2.62859515E-03 -1.63735633E-03  0.00000000E+00 -1.15532828E-13 -3.65229750E-01
 -6.93602410E-02  0.00000000E+00 -6.80365209E-14 -1.99403235E-01  1.03799454E-02
  1.03799454E-02 -2.48804864E-02  0.00000000E+00  0.00000000E+00  4.10698800E-15
  7.45394165E-02  6.72662677E-02  7.45394165E-02  6.72662677E-02  7.45394165E-02
  6.72662677E-02  1.66035714E-02 -7.92796297E-02  0.00000000E+00  2.93208979E-14
 -2.25209358E-01  1.56787309E-01  0.00000000E+00 -7.29235384E-14  5.69047013E-01
  1.97040958E-01  0.00000000E+00 -2.77828533E-14  1.83127714E-01  1.24431035E-02
  1.24431035E-02 -5.09702925E-02  0.00000000E+00  0.00000000E+00  7.44162436E-15
 -8.30236090E-15 -7.53946162E-15  0.00000000E+00 -1.48034881E-01 -1.65107973E-14
  6.77316833E-14  0.00000000E+00 -4.03558705E-02 -4.51402636E-15  7.75067207E-03
 -7.75067207E-03 -1.33268171E-15  0.00000000E+00  0.00000000E+00  2.25017861E-02
 -1.21074884E-01 -1.46164080E-01  6.05374419E-02  7.30820400E-02  6.05374419E-02
  7.30820400E-02  6.60447725E-16 -8.86836996E-16  0.00000000E+00 -2.74471744E-01
 -8.28095216E-15 -3.44735889E-15  0.00000000E+00  7.03907443E-01  2.28269260E-14
 -1.28566518E-14  0.00000000E+00  4.01340687E-01  2.55194082E-14  9.95787005E-04
 -9.95787005E-04  2.04314133E-15  0.00000000E+00  0.00000000E+00 -5.94591322E-03
  0.00000000E+00  0.00000000E+00 -1.48034881E-01  0.00000000E+00  0.00000000E+00
  0.00000000E+00 -4.03558705E-02  0.00000000E+00  0.00000000E+00  0.00000000E+00
  0.00000000E+00  0.00000000E+00  8.94970522E-03  2.25017861E-02  0.00000000E+00
  0.00000000E+00  0.00000000E+00  1.04853925E-01  1.26581806E-01 -1.04853925E-01
 -1.26581806E-01  0.00000000E+00  0.00000000E+00 -2.74471744E-01  0.00000000E+00
  0.00000000E+00  0.00000000E+00  7.03907443E-01  0.00000000E+00  0.00000000E+00
  0.00000000E+00  4.01340687E-01  0.00000000E+00  0.00000000E+00  0.00000000E+00
  0.00000000E+00  0.00000000E+00  1.14983579E-03 -5.94591322E-03  0.00000000E+00
 -1.19671078E-01  1.92864579E-01  0.00000000E+00  2.27713584E-14  3.95583539E-01
  1.30103285E+00  0.00000000E+00  2.53517041E-14  7.35525589E-01 -1.91886916E-03
 -1.91886916E-03 -1.99040745E-02  0.00000000E+00  0.00000000E+00 -1.41771302E-15
 -1.05029941E-02 -2.42028331E-01 -1.05029941E-02 -2.42028331E-01 -1.05029941E-02
 -2.42028331E-01 -2.22807978E-02  1.08836616E-01  0.00000000E+00  1.98250787E-15
 -1.69996999E-01 -2.20033473E-01  0.00000000E+00 -6.62382588E-15  4.55991070E-01
 -6.64481941E-01  0.00000000E+00 -4.61945591E-15  8.80630122E-01 -4.38655979E-02
 -4.38655979E-02  1.15914311E-01  0.00000000E+00  0.00000000E+00 -2.76100575E-15
 -1.15469960E-01  1.29076985E-01  0.00000000E+00  2.84833690E-14 -2.95268462E-01
  2.07039396E+00  0.00000000E+00 -6.66024556E-14 -7.16578359E-01 -1.88220717E-02
 -1.88220717E-02  1.16940010E-02  0.00000000E+00  0.00000000E+00 -9.12005653E-16
 -4.43203701E-02 -1.10164192E+00 -4.43203701E-02 -1.10164192E+00 -4.43203701E-02
 -1.10164192E+00  1.62445131E-02 -4.63429358E-02  0.00000000E+00  8.94182550E-16
  4.62651105E-02  2.48100387E-01  0.00000000E+00 -6.07642846E-15 -1.36163723E-01
 -5.49076261E-02  0.00000000E+00  1.73134834E-14 -1.17937661E-01  1.24668452E-02
  1.24668452E-02  1.08823936E-02  0.00000000E+00  0.00000000E+00 -5.23506844E-16
  1.65629806E-14  1.34224297E-13  0.00000000E+00 -4.03960327E-01  1.72779300E-14
 -4.10688058E-13  0.00000000E+00 -1.36635392E+00  1.82115592E-14 -1.60847253E-02
  1.60847253E-02  5.97209117E-15  0.00000000E+00  0.00000000E+00 -1.31267438E-02
  1.23817668E-01  1.75432684E+00 -6.19088339E-02 -8.77163422E-01 -6.19088339E-02
 -8.77163422E-01 -2.46770043E-15  1.02941717E-15  0.00000000E+00 -1.02575186E-02
  1.24510264E-15 -4.32983486E-14  0.00000000E+00  1.62652233E-02 -1.29180048E-14
  1.16195460E-13  0.00000000E+00  2.18139838E-01 -5.79382102E-14 -2.06594286E-02
  2.06594286E-02  4.89023647E-15  0.00000000E+00  0.00000000E+00  6.38602182E-02
  0.00000000E+00  0.00000000E+00  4.03960327E-01  0.00000000E+00  0.00000000E+00
  0.00000000E+00  1.36635392E+00  0.00000000E+00  0.00000000E+00  0.00000000E+00
  0.00000000E+00  0.00000000E+00  1.85730409E-02  1.31267438E-02  0.00000000E+00
  0.00000000E+00  0.00000000E+00  1.07229246E-01  1.51929161E+00 -1.07229246E-01
 -1.51929161E+00  0.00000000E+00  0.00000000E+00  1.02575186E-02  0.00000000E+00
  0.00000000E+00  0.00000000E+00 -1.62652233E-02  0.00000000E+00  0.00000000E+00
  0.00000000E+00 -2.18139838E-01  0.00000000E+00  0.00000000E+00  0.00000000E+00
  0.00000000E+00  0.00000000E+00  2.38554534E-02 -6.38602182E-02  0.00000000E+00
 -6.61790223E-03 -1.96279357E-02  0.00000000E+00 -1.37659265E-14 -2.67121652E-01
  1.56967459E-01  0.00000000E+00  1.05237379E-13 -1.01713572E-01  5.82562024E-04
  5.82562024E-04 -2.99210523E-02  0.00000000E+00  0.00000000E+00  6.73554524E-15
 -3.95431748E-02 -1.66146561E-01 -3.95431748E-02 -1.66146561E-01 -3.95431748E-02
 -1.66146561E-01 -6.31407192E-02  7.28957049E-02  0.00000000E+00  3.14159284E-14
  1.38071235E-01 -1.28311581E+00  0.00000000E+00 -1.17454593E-13 -4.85566274E-01
  1.73550411E+00  0.00000000E+00  8.10045787E-14  2.73015500E-01 -3.96023879E-02
 -3.96023879E-02 -2.23474902E-01  0.00000000E+00  0.00000000E+00 -2.51556511E-14
  2.04116535E-02 -2.13814439E-01  0.00000000E+00 -1.14293295E-13  2.73363097E-01
  6.53545392E-01  0.00000000E+00  2.12328954E-13 -7.16693167E-02 -5.70454747E-02
 -5.70454747E-02  1.40840685E-01  0.00000000E+00  0.00000000E+00  1.00117474E-14
 -6.94881000E-02  1.67457186E-01 -6.94881000E-02  1.67457186E-01 -6.94881000E-02
  1.67457186E-01  1.62797118E-02  1.92503930E-02  0.00000000E+00  6.49960629E-14
  2.29513907E-01  4.17979564E-01  0.00000000E+00 -2.43566272E-13 -9.46718653E-01
 -8.70261401E-01  0.00000000E+00  1.98119103E-13  1.44948991E+00 -6.73345746E-02
 -6.73345746E-02  3.09226338E-01  0.00000000E+00  0.00000000E+00 -2.88567534E-14
 -2.59497499E-14  8.38155899E-14  0.00000000E+00 -1.63755823E-01  9.74549533E-14
 -1.86381545E-13  0.00000000E+00  2.82362502E-01 -3.76197996E-13  3.15221087E-02
 -3.15221087E-02 -1.50251026E-14  0.00000000E+00  0.00000000E+00  1.94256977E-02
 -1.89811220E-01 -1.10042468E-01  9.49056100E-02  5.50212338E-02  9.49056100E-02
  5.50212338E-02  3.09710525E-16 -9.93879298E-15  0.00000000E+00  2.93065688E-01
 -1.10896559E-13 -6.63566030E-14  0.00000000E+00 -1.12445628E+00  4.24551437E-13
  3.12471785E-13  0.00000000E+00  1.14243734E+00 -6.70813519E-13  6.66029436E-03
 -6.66029436E-03 -1.38598408E-14  0.00000000E+00  0.00000000E+00 -1.14147126E-02
  0.00000000E+00  0.00000000E+00 -1.63755823E-01  0.00000000E+00  0.00000000E+00
  0.00000000E+00  2.82362502E-01  0.00000000E+00  0.00000000E+00  0.00000000E+00
  0.00000000E+00  0.00000000E+00  3.63985959E-02  1.94256977E-02  0.00000000E+00
  0.00000000E+00  0.00000000E+00  1.64381338E-01  9.52995724E-02 -1.64381338E-01
 -9.52995724E-02  0.00000000E+00  0.00000000E+00  2.93065688E-01  0.00000000E+00
  0.00000000E+00  0.00000000E+00 -1.12445628E+00  0.00000000E+00  0.00000000E+00
  0.00000000E+00  1.14243734E+00  0.00000000E+00  0.00000000E+00  0.00000000E+00
  0.00000000E+00  0.00000000E+00  7.69064548E-03 -1.14147126E-02  0.00000000E+00
 -8.30786265E-14  2.91173445E-13  0.00000000E+00 -7.26208650E-01  1.10556523E-12
 -4.40201569E-13  0.00000000E+00  1.49583987E+00 -2.98677006E-12  7.08792352E-02
 -7.08792352E-02  8.92592110E-14  0.00000000E+00  0.00000000E+00  6.37564114E-02
 -3.97117275E-01 -2.29313877E-01  1.98558638E-01  1.14656938E-01  1.98558638E-01
  1.14656938E-01 -3.29459364E-14  1.44981315E-14  0.00000000E+00 -7.19191428E-02
 -2.35438879E-13 -8.44882996E-13  0.00000000E+00  3.09807739E-01  8.25011709E-13
  2.58422688E-12  0.00000000E+00 -7.01303515E-01 -2.14760821E-12  1.75191940E-02
 -1.75191940E-02  1.24966304E-13  0.00000000E+00  0.00000000E+00 -2.84548978E-01
  0.00000000E+00  0.00000000E+00 -7.26208650E-01  0.00000000E+00  0.00000000E+00
  0.00000000E+00  1.49583987E+00  0.00000000E+00  0.00000000E+00  0.00000000E+00
  0.00000000E+00  0.00000000E+00  8.18442910E-02  6.37564114E-02  0.00000000E+00
  0.00000000E+00  0.00000000E+00  3.43913649E-01  1.98591643E-01 -3.43913649E-01
 -1.98591643E-01  0.00000000E+00  0.00000000E+00 -7.19191428E-02  0.00000000E+00
  0.00000000E+00  0.00000000E+00  3.09807739E-01  0.00000000E+00  0.00000000E+00
  0.00000000E+00 -7.01303515E-01  0.00000000E+00  0.00000000E+00  0.00000000E+00
  0.00000000E+00  0.00000000E+00  2.02294227E-02 -2.84548978E-01  0.00000000E+00
  2.71375208E-02 -1.37604970E-01  0.00000000E+00 -1.53183844E-12 -8.05186854E-01
  2.63646045E-01  0.00000000E+00  2.97377539E-12  2.00521115E+00  2.18597967E-02
  2.18597967E-02 -5.24281850E-02  0.00000000E+00  0.00000000E+00  1.14031498E-13
  2.47681650E-01  3.28873570E-01  2.47681650E-01  3.28873570E-01  2.47681650E-01
  3.28873570E-01  2.53194963E-02 -1.07801758E-02  0.00000000E+00 -3.29162391E-14
  1.11377235E-01  5.87957098E-01  0.00000000E+00  1.76383182E-13 -3.75572119E-01
 -1.81040681E+00  0.00000000E+00 -8.29489059E-13  1.28003725E+00  6.77889360E-02
  6.77889360E-02 -5.80317369E-02  0.00000000E+00  0.00000000E+00 -5.15182791E-13
 -2.07090179E-13  2.10360794E-12  0.00000000E+00  7.75135403E-01 -2.83791852E-12
 -4.51235543E-12  0.00000000E+00 -1.29722929E+00  3.94237650E-12  8.21165838E-02
 -8.21165838E-02  6.42028938E-13  0.00000000E+00  0.00000000E+00  1.46726184E-01
 -6.54664690E-01  1.46739109E+00  3.27332345E-01 -7.33695543E-01  3.27332345E-01
 -7.33695543E-01  1.71788614E-14  6.68180219E-14  0.00000000E+00 -7.51213276E-03
 -1.30817907E-13  4.07629792E-13  0.00000000E+00  4.38954089E-02  5.29126688E-13
 -2.54021654E-12  0.00000000E+00  4.56566538E-02  8.36656237E-13 -3.82445996E-01
  3.82445996E-01  1.39515671E-12  0.00000000E+00  0.00000000E+00 -2.88910618E-01
  0.00000000E+00  0.00000000E+00 -7.75135403E-01  0.00000000E+00  0.00000000E+00
  0.00000000E+00  1.29722929E+00  0.00000000E+00  0.00000000E+00  0.00000000E+00
  0.00000000E+00  0.00000000E+00 -9.48200635E-02 -1.46726184E-01  0.00000000E+00
  0.00000000E+00  0.00000000E+00 -5.66956253E-01  1.27079796E+00  5.66956253E-01
 -1.27079796E+00  0.00000000E+00  0.00000000E+00  7.51213276E-03  0.00000000E+00
  0.00000000E+00  0.00000000E+00 -4.38954089E-02  0.00000000E+00  0.00000000E+00
  0.00000000E+00 -4.56566538E-02  0.00000000E+00  0.00000000E+00  0.00000000E+00