Title Card Required                                                     
SP        RB3LYP                                                      6-31+G(d,p)         
Number of atoms                            I                5
Info1-9                                    I   N=           9
          13          12           0           0           0         111
           1          18        -502
Full Title                                 C   N=           2
Title Card Required     
Route                                      C   N=           2
# rb3lyp/6-31+g(d,p)    
Charge                                     I                0
Multiplicity                               I                1
Number of electrons                        I               26
Number of alpha electrons                  I               13
Number of beta electrons                   I               13
Number of basis functions                  I               57
Number of independent functions            I               57
Number of point charges in /Mol/           I                0
Number of translation vectors              I                0
Atomic numbers                             I   N=           5
           6           1           1           1          17
Nuclear charges                            R   N=           5
  6.00000000E+00  1.00000000E+00  1.00000000E+00  1.00000000E+00  1.70000000E+01
Current cartesian coordinates              R   N=          15
  7.26817743E-10 -3.84307970E-17 -2.15287682E+00  1.83992383E-08  1.95378635E+00
 -2.80712230E+00 -1.69202862E+00 -9.76893158E-01 -2.80712230E+00  1.69202860E+00
 -9.76893189E-01 -2.80712230E+00  7.26817743E-10 -3.84307970E-17  1.25521341E+00
Number of symbols in /Mol/                 I                0
Force Field                                I                0
Atom Types                                 C   N=           5
                                                            
Int Atom Types                             I   N=           5
           0           0           0           0           0
MM charges                                 R   N=           5
  0.00000000E+00  0.00000000E+00  0.00000000E+00  0.00000000E+00  0.00000000E+00
Integer atomic weights                     I   N=           5
          12           1           1           1          35
Real atomic weights                        R   N=           5
  1.20000000E+01  1.00782504E+00  1.00782504E+00  1.00782504E+00  3.49688527E+01
Atom fragment info                         I   N=           5
           0           0           0           0           0
Atom residue num                           I   N=           5
           0           0           0           0           0
Nuclear spins                              I   N=           5
           0           1           1           1           3
Nuclear ZEff                               R   N=           5
 -3.60000000E+00 -1.00000000E+00 -1.00000000E+00 -1.00000000E+00 -1.42400000E+01
Nuclear ZNuc                               R   N=           5
  6.00000000E+00  1.00000000E+00  1.00000000E+00  1.00000000E+00  1.70000000E+01
Nuclear QMom                               R   N=           5
  0.00000000E+00  0.00000000E+00  0.00000000E+00  0.00000000E+00 -8.16500000E+00
Nuclear GFac                               R   N=           5
  0.00000000E+00  2.79284600E+00  2.79284600E+00  2.79284600E+00  8.21874000E-01
MicOpt                                     I   N=           5
          -1          -1          -1          -1          -1
Number of residues                         I                0
Number of secondary structures             I                0
SymInf integers                            I   N=          26
           2           2           1           1           1          -1
           1           1           0           0           0           0
           0           0           0           0           0           0
           0           0           0           0           0           0
           0           0
RotTr to input orientation                 R   N=          12
  1.00000000E+00 -9.04521652E-09  0.00000000E+00  9.04521652E-09  1.00000000E+00
  0.00000000E+00  0.00000000E+00  0.00000000E+00  1.00000000E+00  7.26817743E-10
 -3.84307970E-17  4.36090671E-09
Number of contracted shells                I               20
Number of primitive shells                 I               45
Pure/Cartesian d shells                    I                1
Pure/Cartesian f shells                    I                0
Highest angular momentum                   I                2
Largest degree of contraction              I                6
Shell types                                I   N=          20
           0          -1          -1          -1           2           0
           0           1           0           0           1           0
           0           1           0          -1          -1          -1
          -1           2
Number of primitives per shell             I   N=          20
           6           3           1           1           1           3
           1           1           3           1           1           3
           1           1           6           6           3           1
           1           1
Shell to atom map                          I   N=          20
           1           1           1           1           1           2
           2           2           3           3           3           4
           4           4           5           5           5           5
           5           5
Primitive exponents                        R   N=          45
  3.04752488E+03  4.57369518E+02  1.03948685E+02  2.92101553E+01  9.28666296E+00
  3.16392696E+00  7.86827235E+00  1.88128854E+00  5.44249258E-01  1.68714478E-01
  4.38000000E-02  8.00000000E-01  1.87311370E+01  2.82539436E+00  6.40121692E-01
  1.61277759E-01  1.10000000E+00  1.87311370E+01  2.82539436E+00  6.40121692E-01
  1.61277759E-01  1.10000000E+00  1.87311370E+01  2.82539436E+00  6.40121692E-01
  1.61277759E-01  1.10000000E+00  2.51801000E+04  3.78035000E+03  8.60474000E+02
  2.42145000E+02  7.73349000E+01  2.62470000E+01  4.91765000E+02  1.16984000E+02
  3.74153000E+01  1.37834000E+01  5.45215000E+00  2.22588000E+00  3.18649000E+00
  1.14427000E+00  4.20377000E-01  1.42657000E-01  4.83000000E-02  7.50000000E-01
Contraction coefficients                   R   N=          45
  1.83473713E-03  1.40373228E-02  6.88426223E-02  2.32184443E-01  4.67941348E-01
  3.62311985E-01 -1.19332420E-01 -1.60854152E-01  1.14345644E+00  1.00000000E+00
  1.00000000E+00  1.00000000E+00  3.34946043E-02  2.34726953E-01  8.13757326E-01
  1.00000000E+00  1.00000000E+00  3.34946043E-02  2.34726953E-01  8.13757326E-01
  1.00000000E+00  1.00000000E+00  3.34946043E-02  2.34726953E-01  8.13757326E-01
  1.00000000E+00  1.00000000E+00  1.83295985E-03  1.40341988E-02  6.90973943E-02
  2.37451980E-01  4.83033960E-01  3.39855972E-01 -2.29739142E-03 -3.07137189E-02
 -1.12528069E-01  4.50163278E-02  5.89353363E-01  4.65206287E-01 -2.51828028E-01
  6.15892514E-02  1.06018433E+00  1.00000000E+00  1.00000000E+00  1.00000000E+00
P(S=P) Contraction coefficients            R   N=          45
  0.00000000E+00  0.00000000E+00  0.00000000E+00  0.00000000E+00  0.00000000E+00
  0.00000000E+00  6.89990666E-02  3.16423961E-01  7.44308291E-01  1.00000000E+00
  1.00000000E+00  0.00000000E+00  0.00000000E+00  0.00000000E+00  0.00000000E+00
  0.00000000E+00  0.00000000E+00  0.00000000E+00  0.00000000E+00  0.00000000E+00
  0.00000000E+00  0.00000000E+00  0.00000000E+00  0.00000000E+00  0.00000000E+00
  0.00000000E+00  0.00000000E+00  0.00000000E+00  0.00000000E+00  0.00000000E+00
  0.00000000E+00  0.00000000E+00  0.00000000E+00  3.98940088E-03  3.03177067E-02
  1.29880029E-01  3.27951072E-01  4.53527100E-01  2.52154056E-01 -1.42993147E-02
  3.23572333E-01  7.43507765E-01  1.00000000E+00  1.00000000E+00  0.00000000E+00
Coordinates of each shell                  R   N=          60
  0.00000000E+00  0.00000000E+00 -2.15287682E+00  0.00000000E+00  0.00000000E+00
 -2.15287682E+00  0.00000000E+00  0.00000000E+00 -2.15287682E+00  0.00000000E+00
  0.00000000E+00 -2.15287682E+00  0.00000000E+00  0.00000000E+00 -2.15287682E+00
  1.61613419E-24  1.95378635E+00 -2.80712231E+00  1.61613419E-24  1.95378635E+00
 -2.80712231E+00  1.61613419E-24  1.95378635E+00 -2.80712231E+00 -1.69202861E+00
 -9.76893174E-01 -2.80712231E+00 -1.69202861E+00 -9.76893174E-01 -2.80712231E+00
 -1.69202861E+00 -9.76893174E-01 -2.80712231E+00  1.69202861E+00 -9.76893174E-01
 -2.80712231E+00  1.69202861E+00 -9.76893174E-01 -2.80712231E+00  1.69202861E+00
 -9.76893174E-01 -2.80712231E+00  0.00000000E+00  0.00000000E+00  1.25521340E+00
  0.00000000E+00  0.00000000E+00  1.25521340E+00  0.00000000E+00  0.00000000E+00
  1.25521340E+00  0.00000000E+00  0.00000000E+00  1.25521340E+00  0.00000000E+00
  0.00000000E+00  1.25521340E+00  0.00000000E+00  0.00000000E+00  1.25521340E+00
Num ILSW                                   I              100
ILSW                                       I   N=         100
           0           1           0           0           2           0
           0           0           0           0         402          -1
           5           0           0           0           0           0
           0           0           1           0           0           0
           1           0           0           0           0           0
           0           0      100000           0          -1           0
           0           0           0           0           0           0
           0           0           0           1           0           0
           0 -2000000000           1           0           0           0
           0           0           4          52           0           0
           0           0           5           0           0           0
           0           0           0           0           0           1
           0           0           0           0           0           0
           0           0           0           0           0           0
           0           0           0           0           0           0
           0           0           0           0           0           0
           0           0           0           0
Num RLSW                                   I               52
RLSW                                       R   N=          52
  8.00000000E-01  7.20000000E-01  1.00000000E+00  8.10000000E-01  2.00000000E-01
  0.00000000E+00  0.00000000E+00  1.00000000E+00  0.00000000E+00  0.00000000E+00
  0.00000000E+00  0.00000000E+00  1.00000000E+00  0.00000000E+00  0.00000000E+00
  0.00000000E+00  0.00000000E+00  1.00000000E+00  0.00000000E+00  0.00000000E+00
  0.00000000E+00  0.00000000E+00  1.00000000E+00  0.00000000E+00  0.00000000E+00
  0.00000000E+00  0.00000000E+00  1.00000000E+00  0.00000000E+00  0.00000000E+00
  0.00000000E+00  0.00000000E+00  1.00000000E+00  0.00000000E+00  0.00000000E+00
  0.00000000E+00  0.00000000E+00  0.00000000E+00  1.00000000E+00  1.00000000E+00
  0.00000000E+00  1.00000000E+00  0.00000000E+00  0.00000000E+00  0.00000000E+00
  0.00000000E+00  0.00000000E+00  0.00000000E+00  0.00000000E+00  0.00000000E+00
  0.00000000E+00  0.00000000E+00
MxBond                                     I                4
NBond                                      I   N=           5
           4           1           1           1           1
IBond                                      I   N=          20
           2           3           4           5           1           0
           0           0           1           0           0           0
           1           0           0           0           1           0
           0           0
RBond                                      R   N=          20
  1.00000000E+00  1.00000000E+00  1.00000000E+00  1.00000000E+00  1.00000000E+00
  0.00000000E+00  0.00000000E+00  0.00000000E+00  1.00000000E+00  0.00000000E+00
  0.00000000E+00  0.00000000E+00  1.00000000E+00  0.00000000E+00  0.00000000E+00
  0.00000000E+00  1.00000000E+00  0.00000000E+00  0.00000000E+00  0.00000000E+00
Virial Ratio                               R      2.003728091428869E+00
SCF Energy                                 R     -5.001153989106937E+02
Total Energy                               R     -5.001153989106937E+02
RMS Density                                R      3.124622743033810E-09
Job Status                                 I                1
Nuclear derivative order                   I                0
External E-field                           R   N=          35
  0.00000000E+00  0.00000000E+00  0.00000000E+00  0.00000000E+00  0.00000000E+00
  0.00000000E+00  0.00000000E+00  0.00000000E+00  0.00000000E+00  0.00000000E+00
  0.00000000E+00  0.00000000E+00  0.00000000E+00  0.00000000E+00  0.00000000E+00
  0.00000000E+00  0.00000000E+00  0.00000000E+00  0.00000000E+00  0.00000000E+00
  0.00000000E+00  0.00000000E+00  0.00000000E+00  0.00000000E+00  0.00000000E+00
  0.00000000E+00  0.00000000E+00  0.00000000E+00  0.00000000E+00  0.00000000E+00
  0.00000000E+00  0.00000000E+00  0.00000000E+00  0.00000000E+00  0.00000000E+00
IOpCl                                      I                0
IROHF                                      I                0
Alpha Orbital Energies                     R   N=          57
 -1.01542842E+02 -1.02509196E+01 -9.45853777E+00 -7.22275051E+00 -7.21256893E+00
 -7.21256893E+00 -8.54613669E-01 -6.84974975E-01 -4.56014668E-01 -4.56014668E-01
 -4.17736348E-01 -3.02524617E-01 -3.02524617E-01 -8.95993780E-03  1.48964231E-02
  5.22246133E-02  5.22246133E-02  7.12719941E-02  9.46879000E-02  1.05350303E-01
  1.05350303E-01  1.63288263E-01  1.63288263E-01  1.65544373E-01  2.58416620E-01
  5.69055415E-01  5.85083378E-01  5.85083378E-01  6.22795802E-01  6.28500264E-01
  6.28500264E-01  6.91675703E-01  8.38937100E-01  8.38937100E-01  8.95540514E-01
  8.95540514E-01  9.47185618E-01  9.47185618E-01  9.53261255E-01  1.08595548E+00
  1.27301942E+00  1.44992723E+00  1.44992723E+00  2.00212963E+00  2.04836277E+00
  2.04836277E+00  2.07607165E+00  2.31992593E+00  2.31992593E+00  2.58277936E+00
  2.78604714E+00  2.78604714E+00  3.18743360E+00  3.37796219E+00  3.37796219E+00
  4.25952846E+00  4.40930434E+00
Alpha MO coefficients                      R   N=        3249
 -6.40030642E-06  3.77054929E-05  0.00000000E+00  1.50004275E-15  5.82645927E-05
  1.35393444E-04  0.00000000E+00  8.41954200E-16 -8.75717651E-06  2.65053466E-04
  0.00000000E+00  6.01876894E-18  6.97413087E-05  1.15429495E-05  1.15429495E-05
 -4.03930149E-05  0.00000000E+00  0.00000000E+00 -1.00204614E-15 -2.97777541E-05
 -5.91619075E-05  0.00000000E+00  1.41740949E-05 -2.28423347E-05 -2.97777541E-05
 -5.91619075E-05 -1.22751262E-05 -7.08704743E-06 -2.28423347E-05 -2.97777541E-05
 -5.91619075E-05  1.22751262E-05 -7.08704743E-06 -2.28423347E-05  9.95997086E-01
  1.51491086E-02  0.00000000E+00  4.65530300E-17 -4.84097070E-05 -2.10685012E-02
  0.00000000E+00 -1.58968570E-17  1.76805055E-05  1.90987819E-03  0.00000000E+00
 -4.37475020E-17  3.52652928E-05 -5.09633157E-04  0.00000000E+00 -1.30209752E-16
  6.68669876E-05  7.52273719E-03  7.52273719E-03  7.50736769E-03  0.00000000E+00
  0.00000000E+00  7.05705462E-17  9.92970814E-01  4.95573433E-02  0.00000000E+00
  5.38804699E-16  6.08039975E-04 -1.62697165E-02  0.00000000E+00 -1.00845172E-15
 -1.06843506E-03 -1.77223226E-03  0.00000000E+00 -2.05128010E-16 -2.81396680E-04
 -8.90107407E-03 -8.90107407E-03 -9.27215300E-03  0.00000000E+00  0.00000000E+00
 -3.21412918E-16 -2.11313811E-04  3.12715512E-03  0.00000000E+00  1.10679833E-04
 -1.03278354E-05 -2.11313811E-04  3.12715512E-03 -9.58515467E-05 -5.53399163E-05
 -1.03278354E-05 -2.11313811E-04  3.12715512E-03  9.58515467E-05 -5.53399163E-05
 -1.03278354E-05 -1.01057990E-05 -3.65496363E-05  0.00000000E+00  8.60231487E-17
 -9.60460344E-06  2.88218035E-05  0.00000000E+00 -1.53369786E-16 -1.21534530E-04
  3.08952794E-03  0.00000000E+00  4.91035931E-16 -2.20365930E-03  1.17681661E-03
  0.00000000E+00 -2.15675257E-16 -1.05715770E-04 -1.78338229E-04 -1.78338229E-04
 -1.41955821E-04  0.00000000E+00  0.00000000E+00 -3.38200486E-17 -1.03789986E-04
  2.26364124E-04  0.00000000E+00  2.77443837E-16 -3.23445498E-04  1.98471843E-03
  0.00000000E+00  2.82429926E-16  1.39164751E-03 -2.07098107E-02  0.00000000E+00
 -4.52717669E-16 -7.33987175E-03 -1.31168313E-04 -1.31168313E-04 -8.13409922E-04
  0.00000000E+00  0.00000000E+00  3.57061499E-18 -1.56251443E-04  6.54672097E-04
  0.00000000E+00 -6.38164551E-05  8.81406732E-05 -1.56251443E-04  6.54672097E-04
  5.52666713E-05  3.19082276E-05  8.81406732E-05 -1.56251443E-04  6.54672097E-04
 -5.52666713E-05  3.19082276E-05  8.81406732E-05 -2.84615200E-01  1.02265495E+00
  0.00000000E+00 -1.78210677E-16 -6.00436947E-03  7.55857029E-02  0.00000000E+00
 -9.66118008E-17 -9.53278156E-04 -2.34631244E-02  0.00000000E+00 -1.51796088E-16
  2.26154343E-03  2.68668363E-02  0.00000000E+00  4.52544770E-16 -8.34760176E-03
 -1.57440982E-02 -1.57440982E-02 -1.52130006E-02  0.00000000E+00  0.00000000E+00
  6.68126201E-17 -4.06803121E-05 -1.55881536E-03  0.00000000E+00 -1.18860535E-16
  7.72363837E-04 -9.79610706E-05  0.00000000E+00  8.09473190E-16  5.37672351E-04
  1.24506424E-03  0.00000000E+00  2.71414339E-15 -1.26047458E-03 -1.53079453E-04
 -1.53079453E-04  2.09349772E-03  0.00000000E+00  0.00000000E+00 -1.27952206E-16
 -8.64661006E-06 -4.37573341E-04  0.00000000E+00 -3.86589968E-05 -2.86188887E-04
 -8.64661006E-06 -4.37573341E-04  3.34796733E-05  1.93294984E-05 -2.86188887E-04
 -8.64661006E-06 -4.37573341E-04 -3.34796733E-05  1.93294984E-05 -2.86188887E-04
 -1.78941038E-03  6.57856378E-03  0.00000000E+00  2.90462121E-14  9.90376336E-01
 -5.41510803E-05  0.00000000E+00 -2.48336359E-17  3.11053360E-02 -8.88802925E-05
  0.00000000E+00  1.34698031E-15 -1.18198746E-02  3.44282169E-04  0.00000000E+00
 -2.36891365E-15  4.46958287E-03  2.59425332E-04  2.59425332E-04 -1.12110344E-03
  0.00000000E+00  0.00000000E+00 -5.79979309E-17 -5.12677715E-17 -2.83061000E-16
  0.00000000E+00 -1.55900923E-04 -1.11554713E-16  8.46624978E-16  0.00000000E+00
  7.98284133E-04  1.70661277E-15  1.86009591E-14  0.00000000E+00 -1.51262481E-03
  7.18707287E-15  5.77995250E-05 -5.77995250E-05 -2.75245525E-16  0.00000000E+00
  0.00000000E+00 -2.18336016E-04 -9.40709108E-05  3.12205017E-04  0.00000000E+00
 -1.59484384E-05  2.49958625E-04  4.70354554E-05 -1.56102508E-04  6.85791364E-06
 -2.78266932E-05 -1.24979313E-04  4.70354554E-05 -1.56102508E-04 -6.85791364E-06
 -2.78266932E-05 -1.24979313E-04  7.66075111E-17 -4.48379041E-16  0.00000000E+00
  9.90885419E-01 -2.89031714E-14  2.12823025E-15  0.00000000E+00  2.94373865E-02
 -3.50930018E-16  1.04161223E-15  0.00000000E+00 -1.14141385E-02  7.97200510E-16
 -1.97041612E-14  0.00000000E+00  4.93858027E-03  7.71627679E-15  6.29799425E-07
 -6.29799427E-07 -9.87670341E-16  0.00000000E+00  0.00000000E+00 -3.77336631E-04
  0.00000000E+00  0.00000000E+00 -1.55900923E-04  0.00000000E+00  0.00000000E+00
  0.00000000E+00  7.98284133E-04  0.00000000E+00  0.00000000E+00  0.00000000E+00
 -1.51262481E-03  0.00000000E+00  0.00000000E+00  0.00000000E+00  0.00000000E+00
  0.00000000E+00  6.67411427E-05 -2.18336016E-04  0.00000000E+00  0.00000000E+00
  0.00000000E+00 -3.17861115E-05  0.00000000E+00  0.00000000E+00  8.14677985E-05
 -2.70377476E-04 -1.99078567E-05  6.85791364E-06 -2.16470519E-04 -8.14677985E-05
  2.70377476E-04 -1.99078567E-05 -6.85791364E-06  2.16470519E-04  0.00000000E+00
  0.00000000E+00  9.90885419E-01  0.00000000E+00  0.00000000E+00  0.00000000E+00
  2.94373865E-02  0.00000000E+00  0.00000000E+00  0.00000000E+00 -1.14141385E-02
  0.00000000E+00  0.00000000E+00  0.00000000E+00  4.93858027E-03  0.00000000E+00
  0.00000000E+00  0.00000000E+00  0.00000000E+00  0.00000000E+00  7.27229737E-07
 -3.77336631E-04  0.00000000E+00 -1.09941844E-01  2.09070830E-01  0.00000000E+00
  2.00530739E-16  8.28754946E-02  1.99505574E-01  0.00000000E+00 -7.90118752E-15
  2.77638252E-02  4.48089633E-02  0.00000000E+00 -5.47442686E-15  1.14994635E-02
 -8.96659748E-03 -8.96659748E-03  1.06133313E-02  0.00000000E+00  0.00000000E+00
 -1.00506640E-17  5.62812043E-02  1.11062109E-03  0.00000000E+00 -5.78473177E-03
  2.67183188E-03  5.62812043E-02  1.11062109E-03  5.00972467E-03  2.89236588E-03
  2.67183188E-03  5.62812043E-02  1.11062109E-03 -5.00972467E-03  2.89236588E-03
  2.67183188E-03  7.01832559E-02 -3.16443906E-01  0.00000000E+00 -6.58606599E-17
  4.78123759E-02  6.26749286E-01  0.00000000E+00 -3.45775960E-16 -1.13899475E-01
  2.30110590E-01  0.00000000E+00  1.20487972E-15 -2.74166021E-03 -4.82939854E-02
  0.00000000E+00  1.72145870E-15  1.51266248E-02 -1.74154202E-02 -1.74154202E-02
  2.57010294E-02  0.00000000E+00  0.00000000E+00  2.30476161E-16  1.67253443E-01
 -3.32944026E-01  0.00000000E+00 -4.85609033E-18  9.93065216E-02 -3.42220595E-01
  0.00000000E+00  1.52377870E-14  1.98752199E-02 -1.36330920E-02  0.00000000E+00
  6.09338062E-15  2.59326466E-03  3.90826212E-03  3.90826212E-03  1.48308756E-02
  0.00000000E+00  0.00000000E+00  3.57414955E-16 -1.38190487E-01 -4.00126544E-02
  0.00000000E+00  1.13937236E-02 -2.15157656E-03 -1.38190487E-01 -4.00126544E-02
 -9.86725410E-03 -5.69686181E-03 -2.15157656E-03 -1.38190487E-01 -4.00126544E-02
  9.86725410E-03 -5.69686181E-03 -2.15157656E-03  4.60477833E-02 -2.07840464E-01
  0.00000000E+00 -1.03650413E-16 -4.28675417E-02  4.31041711E-01  0.00000000E+00
  8.09583946E-16  9.93109716E-02  2.25691705E-01  0.00000000E+00 -3.65707762E-15
  5.97405011E-03  4.32117292E-03  0.00000000E+00 -1.92834389E-16  1.65664894E-03
 -8.11786533E-04 -8.11786533E-04 -1.80900873E-02  0.00000000E+00  0.00000000E+00
 -2.15078564E-16  0.00000000E+00  0.00000000E+00  4.40821166E-01  0.00000000E+00
  0.00000000E+00  0.00000000E+00  2.06042986E-01  0.00000000E+00  0.00000000E+00
  0.00000000E+00  2.42688312E-02  0.00000000E+00  0.00000000E+00  0.00000000E+00
  0.00000000E+00  0.00000000E+00 -1.83832281E-02 -4.06359529E-03  0.00000000E+00
  0.00000000E+00  0.00000000E+00  7.39905823E-03  0.00000000E+00  0.00000000E+00
 -2.21581309E-01 -1.48124435E-01 -2.32959959E-03 -5.61684321E-03 -4.03335709E-03
  2.21581309E-01  1.48124435E-01 -2.32959959E-03  5.61684321E-03  4.03335709E-03
  0.00000000E+00  0.00000000E+00 -8.27693674E-02  0.00000000E+00  0.00000000E+00
  0.00000000E+00  2.06723581E-01  0.00000000E+00  0.00000000E+00  0.00000000E+00
  7.74342184E-02  0.00000000E+00  0.00000000E+00  0.00000000E+00 -1.47356685E-03
  0.00000000E+00  0.00000000E+00  0.00000000E+00  0.00000000E+00  0.00000000E+00
 -1.30610521E-03 -2.68760610E-02  0.00000000E+00 -4.39218095E-15  1.45479216E-14
  0.00000000E+00  4.40821166E-01  1.33343699E-14  2.06230994E-14  0.00000000E+00
  2.06042986E-01 -1.11015236E-14  1.90271364E-13  0.00000000E+00  2.42688312E-02
  7.48024298E-14 -1.59203425E-02  1.59203425E-02 -6.57259429E-15  0.00000000E+00
  0.00000000E+00 -4.06359529E-03  2.55860057E-01  1.71039365E-01  0.00000000E+00
 -5.57248552E-03  4.65731961E-03 -1.27930029E-01 -8.55196824E-02 -5.61684321E-03
  4.15617229E-03 -2.32865980E-03 -1.27930029E-01 -8.55196824E-02  5.61684321E-03
  4.15617229E-03 -2.32865980E-03 -1.20687142E-15  3.12171692E-15  0.00000000E+00
 -8.27693674E-02  9.03635183E-15 -1.80745993E-14  0.00000000E+00  2.06723581E-01
 -2.11021728E-14  3.94405528E-14  0.00000000E+00  7.74342184E-02 -2.60062715E-14
 -2.11539555E-13  0.00000000E+00 -1.47356685E-03  8.64153964E-14 -1.13112029E-03
  1.13112029E-03  1.45422289E-15  0.00000000E+00  0.00000000E+00 -2.68760610E-02
  1.58200391E-03 -2.46927051E-04  0.00000000E+00  1.98753238E-14 -3.64710324E-01
 -6.20753312E-02  0.00000000E+00  1.14719087E-15 -1.89011418E-01 -7.97136219E-03
  0.00000000E+00  1.01741836E-15 -2.33163199E-02  9.01311599E-03  9.01311599E-03
 -2.67315360E-02  0.00000000E+00  0.00000000E+00 -2.80566799E-16  7.59557993E-02
  6.28277507E-02  0.00000000E+00 -4.01316949E-03 -5.18046640E-03  7.59557993E-02
  6.28277507E-02  3.47550673E-03  2.00658475E-03 -5.18046640E-03  7.59557993E-02
  6.28277507E-02 -3.47550673E-03  2.00658475E-03 -5.18046640E-03  1.66186353E-02
 -7.78550612E-02  0.00000000E+00 -5.18088465E-15 -2.25771128E-01  1.60772642E-01
  0.00000000E+00  1.25844229E-14  5.73132446E-01  1.68217660E-01  0.00000000E+00
  8.44147571E-15  1.74903650E-01  4.62372777E-02  0.00000000E+00 -2.54840438E-15
  9.86887979E-03  1.37339543E-02  1.37339543E-02 -5.05506611E-02  0.00000000E+00
  0.00000000E+00 -1.97901583E-15  1.92959788E-15 -1.27404318E-14  0.00000000E+00
 -1.50601848E-01  3.12298379E-15  7.06823478E-15  0.00000000E+00 -3.47438251E-02
  1.32311444E-14 -1.16400765E-13  0.00000000E+00 -2.61550563E-02 -4.42807022E-14
  7.37022899E-03 -7.37022899E-03  5.01017483E-15  0.00000000E+00  0.00000000E+00
  2.13975135E-02 -1.23170850E-01 -1.50326932E-01  0.00000000E+00  2.60279403E-03
  6.76880341E-04  6.15854248E-02  7.51634661E-02  2.73486777E-03 -2.13413590E-03
 -3.38440171E-04  6.15854248E-02  7.51634661E-02 -2.73486777E-03 -2.13413590E-03
 -3.38440171E-04  1.44562458E-16  1.21859327E-15  0.00000000E+00 -2.74531782E-01
  1.76379371E-15  6.70546719E-15  0.00000000E+00  7.08533418E-01 -5.82674577E-15
 -3.83344303E-14  0.00000000E+00  3.68354471E-01  1.67165522E-14  1.34565724E-13
  0.00000000E+00  6.00692947E-02 -6.21767886E-14  1.00843641E-03 -1.00843641E-03
  3.76754204E-16  0.00000000E+00  0.00000000E+00 -5.63502668E-03  0.00000000E+00
  0.00000000E+00 -1.50601848E-01  0.00000000E+00  0.00000000E+00  0.00000000E+00
 -3.47438251E-02  0.00000000E+00  0.00000000E+00  0.00000000E+00 -2.61550563E-02
  0.00000000E+00  0.00000000E+00  0.00000000E+00  0.00000000E+00  0.00000000E+00
  8.51040738E-03  2.13975135E-02  0.00000000E+00  0.00000000E+00  0.00000000E+00
 -3.71311255E-03  0.00000000E+00  0.00000000E+00  1.06669085E-01  1.30186942E-01
  1.02381738E-03  2.73486777E-03 -5.86195571E-04 -1.06669085E-01 -1.30186942E-01
  1.02381738E-03 -2.73486777E-03  5.86195571E-04  0.00000000E+00  0.00000000E+00
 -2.74531782E-01  0.00000000E+00  0.00000000E+00  0.00000000E+00  7.08533418E-01
  0.00000000E+00  0.00000000E+00  0.00000000E+00  3.68354471E-01  0.00000000E+00
  0.00000000E+00  0.00000000E+00  6.00692947E-02  0.00000000E+00  0.00000000E+00
  0.00000000E+00  0.00000000E+00  0.00000000E+00  1.16444206E-03 -5.63502668E-03
  0.00000000E+00  1.05405341E-01 -2.15137266E-01  0.00000000E+00  9.00390682E-15
 -2.14954892E-01 -8.23128072E-01  0.00000000E+00  3.62741442E-14 -3.40308081E-01
 -2.35094516E-01  0.00000000E+00  4.55859535E-15 -8.54124091E-01  5.51465884E-03
  5.51465884E-03  1.81985332E-02  0.00000000E+00  0.00000000E+00 -8.65626781E-16
  9.51671864E-03 -1.62221070E-02  0.00000000E+00  7.46078724E-03 -1.12788773E-02
  9.51671864E-03 -1.62221070E-02 -6.46123128E-03 -3.73039362E-03 -1.12788773E-02
  9.51671864E-03 -1.62221070E-02  6.46123128E-03 -3.73039362E-03 -1.12788773E-02
  1.57781535E-02 -7.10275241E-02  0.00000000E+00  1.46425814E-15  1.20456163E-01
  1.70565204E-01  0.00000000E+00 -3.27763592E-15 -3.30971123E-01  2.75365584E-01
  0.00000000E+00 -1.13908877E-14 -3.98000068E-01  9.64491955E-01  0.00000000E+00
  7.62208041E-15 -4.99772465E-01  3.19577218E-02  3.19577218E-02 -7.51779615E-02
  0.00000000E+00  0.00000000E+00 -1.22583257E-15  2.87410535E-02 -5.95259075E-02
  0.00000000E+00  1.92510849E-14  2.23034480E-01 -2.77981539E-01  0.00000000E+00
  1.78444592E-13  3.39302834E-01  3.60383904E+00  0.00000000E+00  9.25140158E-14
  1.26732447E+00  1.27865356E-02  1.27865356E-02 -1.09303084E-02  0.00000000E+00
  0.00000000E+00  1.78917014E-16  1.68610874E-02 -3.49859460E-02  0.00000000E+00
  1.10444565E-02  5.44589811E-03  1.68610874E-02 -3.49859460E-02 -9.56477993E-03
 -5.52222827E-03  5.44589811E-03  1.68610874E-02 -3.49859460E-02  9.56477993E-03
 -5.52222827E-03  5.44589811E-03 -2.24949628E-02  1.00201793E-01  0.00000000E+00
  3.06738639E-15 -3.84261638E-02 -2.49204493E-01  0.00000000E+00 -7.67731558E-15
  1.13072698E-01 -5.02901765E-01  0.00000000E+00 -2.93191133E-14  1.62513213E-01
 -2.27562326E+00  0.00000000E+00 -3.03413942E-14  1.19256940E+00  1.41447193E-03
  1.41447193E-03  1.86401033E-02  0.00000000E+00  0.00000000E+00 -3.82162168E-15
  1.63371079E-14  1.23091898E-14  0.00000000E+00 -2.15381818E-01  1.25674649E-15
 -3.97920046E-13  0.00000000E+00 -2.97542702E-01  6.89237254E-14 -4.49048589E-13
  0.00000000E+00  1.19506069E+00 -6.05935017E-14  5.06270779E-03 -5.06270779E-03
  4.63503353E-15  0.00000000E+00  0.00000000E+00 -4.69627111E-03 -1.24741655E-02
 -1.04619653E-02  0.00000000E+00  1.02944170E-02 -4.66331287E-03  6.23708275E-03
  5.23098263E-03  3.33293624E-03  4.52160211E-03  2.33165644E-03  6.23708275E-03
  5.23098263E-03 -3.33293624E-03  4.52160211E-03  2.33165644E-03  2.30640357E-16
 -2.25690042E-15  0.00000000E+00  3.31842756E-02  1.59771359E-15 -8.14913830E-16
  0.00000000E+00 -8.60043169E-02 -4.21159597E-15  2.65953646E-14  0.00000000E+00
 -1.55104471E-01 -3.49426704E-14  2.75479134E-13  0.00000000E+00 -3.19338849E-02
 -9.50543907E-14  3.84402972E-04 -3.84402972E-04 -3.37981070E-15  0.00000000E+00
  0.00000000E+00  1.34731293E-02  0.00000000E+00  0.00000000E+00 -2.15381818E-01
  0.00000000E+00  0.00000000E+00  0.00000000E+00 -2.97542702E-01  0.00000000E+00
  0.00000000E+00  0.00000000E+00  1.19506069E+00  0.00000000E+00  0.00000000E+00
  0.00000000E+00  0.00000000E+00  0.00000000E+00  5.84591141E-03 -4.69627111E-03
  0.00000000E+00  0.00000000E+00  0.00000000E+00  2.59733048E-03  0.00000000E+00