PBE1PBE/def2TZVP opt freq                                               
Freq      RPBE1PBE                                                    def2TZVP            
Number of atoms                            I                4
Info1-9                                    I   N=           9
          12          11        1002           0           0         100
           6          18        -302
Full Title                                 C   N=           3
PBE1PBE/def2TZVP opt freq           
Route                                      C   N=           3
# PBE1PBE/def2TZVP opt freq         
Charge                                     I                0
Multiplicity                               I                1
Number of electrons                        I               48
Number of alpha electrons                  I               24
Number of beta electrons                   I               24
Number of basis functions                  I              136
Number of independent functions            I              136
Number of point charges in /Mol/           I                0
Number of translation vectors              I                0
Atomic numbers                             I   N=           4
          15           8           8          17
Nuclear charges                            R   N=           4
  1.50000000E+01  8.00000000E+00  8.00000000E+00  1.70000000E+01
Current cartesian coordinates              R   N=          12
  0.00000000E+00  3.94430453E-31 -9.65879224E-01  1.97215226E-31  2.52251395E+00
 -2.03439322E+00 -3.08918863E-16 -2.52251395E+00 -2.03439322E+00 -3.94430453E-31
  0.00000000E+00  2.76696941E+00
Number of symbols in /Mol/                 I                0
Force Field                                I                0
Atom Types                                 C   N=           4
                                                
Int Atom Types                             I   N=           4
           0           0           0           0
MM charges                                 R   N=           4
  0.00000000E+00  0.00000000E+00  0.00000000E+00  0.00000000E+00
Integer atomic weights                     I   N=           4
          31          16          16          35
Real atomic weights                        R   N=           4
  3.09737634E+01  1.59949146E+01  1.59949146E+01  3.49688527E+01
Atom fragment info                         I   N=           4
           0           0           0           0
Atom residue num                           I   N=           4
           0           0           0           0
Nuclear spins                              I   N=           4
           1           0           0           3
Nuclear ZEff                               R   N=           4
 -1.29400000E+01 -5.60000000E+00 -5.60000000E+00 -1.42400000E+01
Nuclear ZNuc                               R   N=           4
  1.50000000E+01  8.00000000E+00  8.00000000E+00  1.70000000E+01
Nuclear QMom                               R   N=           4
  0.00000000E+00  0.00000000E+00  0.00000000E+00 -8.16500000E+00
Nuclear GFac                               R   N=           4
  1.13160000E+00  0.00000000E+00  0.00000000E+00  8.21874000E-01
MicOpt                                     I   N=           4
          -1          -1          -1          -1
Number of residues                         I                0
Number of secondary structures             I                0
Redundant internal dimensions              I   N=           4
           7           3           3           1
Redundant internal coordinate indices      I   N=          28
           1           2           0           0           1           3
           0           0           1           4           0           0
           2           1           3           0           2           1
           4           0           3           1           4           0
           2           1           4           3
Redundant internal coordinates             R   N=           7
  2.73948878E+00  2.73948878E+00  3.73284863E+00  2.34023958E+00  1.97147286E+00
  1.97147286E+00  3.14159265E+00
ZRed-IntVec                                I   N=           7
           0           0           0           0           0           0
           0
ZRed-FPVec                                 R   N=           7
  0.00000000E+00  0.00000000E+00  0.00000000E+00  0.00000000E+00  0.00000000E+00
  0.00000000E+00  0.00000000E+00
ZRed-Constraint1                           R   N=           7
  2.73948878E+00  2.73948878E+00  3.73284863E+00  2.34023958E+00  1.97147286E+00
  1.97147286E+00  3.14159265E+00
ZRed-Constraint2                           R   N=           7
  3.23143168E+00  3.23143168E+00  3.85504129E+00  2.09439509E+00  2.09439511E+00
  2.09439511E+00  3.14159265E+00
SymInf integers                            I   N=          26
           2           4           1           1           1          -1
          -1           1          -1           1           1           1
          -1           1           0           0           0           0
           0           0           0           0           0           0
           0           0
RotTr to input orientation                 R   N=          12
 -1.00000000E+00  9.83386481E-16  3.22678898E-16 -9.83386481E-16 -1.00000000E+00
  1.38532913E-15  3.22678898E-16  1.38532913E-15  1.00000000E+00  3.51763465E-16
  4.66895183E-17 -1.03928718E-01
Number of contracted shells                I               48
Number of primitive shells                 I               94
Pure/Cartesian d shells                    I                0
Pure/Cartesian f shells                    I                0
Highest angular momentum                   I                3
Largest degree of contraction              I                7
Shell types                                I   N=          48
           0           0           0           0           0           1
           1           1           1           1          -2          -2
          -3           0           0           0           0           0
           1           1           1          -2          -2          -3
           0           0           0           0           0           1
           1           1          -2          -2          -3           0
           0           0           0           0           1           1
           1           1           1          -2          -2          -3
Number of primitives per shell             I   N=          48
           7           3           2           1           1           5
           1           1           1           1           2           1
           1           6           2           1           1           1
           4           1           1           1           1           1
           6           2           1           1           1           4
           1           1           1           1           1           7
           3           2           1           1           5           1
           1           1           1           2           1           1
Shell to atom map                          I   N=          48
           1           1           1           1           1           1
           1           1           1           1           1           1
           1           2           2           2           2           2
           2           2           2           2           2           2
           3           3           3           3           3           3
           3           3           3           3           3           4
           4           4           4           4           4           4
           4           4           4           4           4           4
Primitive exponents                        R   N=          94
  5.24269992E+04  7.86326606E+03  1.78952273E+03  5.06273002E+02  1.64606985E+02
  5.83919187E+01  2.16436632E+01  9.90138376E+01  3.05504398E+01  5.45370877E+00
  2.65033626E+00  1.27266889E+00  3.16450052E-01  1.14174669E-01  4.72272192E+02
  1.11588828E+02  3.54459364E+01  1.29907769E+01  5.04862217E+00  1.99340496E+00
  6.65272844E-01  2.55168321E-01  9.03577623E-02  3.12000000E+00  6.48000000E-01
  2.18000000E-01  4.52000000E-01  2.70323826E+04  4.05238714E+03  9.22327227E+02
  2.61240710E+02  8.53546414E+01  3.10350352E+01  1.22608607E+01  4.99870760E+00
  1.17031082E+00  4.64747410E-01  1.85045364E-01  6.32749548E+01  1.46270494E+01
  4.45012235E+00  1.52757996E+00  5.29351179E-01  1.74784213E-01  2.31400000E+00
  6.45000000E-01  1.42800000E+00  2.70323826E+04  4.05238714E+03  9.22327227E+02
  2.61240710E+02  8.53546414E+01  3.10350352E+01  1.22608607E+01  4.99870760E+00
  1.17031082E+00  4.64747410E-01  1.85045364E-01  6.32749548E+01  1.46270494E+01
  4.45012235E+00  1.52757996E+00  5.29351179E-01  1.74784213E-01  2.31400000E+00
  6.45000000E-01  1.42800000E+00  6.95079909E+04  1.04261569E+04  2.37323341E+03
  6.71564201E+02  2.18419998E+02  7.75722497E+01  2.88888153E+01  1.27105272E+02
  3.93395830E+01  7.67406800E+00  3.87456276E+00  1.83858326E+00  5.02290575E-01
  1.79627234E-01  6.66504233E+02  1.57642417E+02  5.02625210E+01  1.85360781E+01
  7.29405328E+00  2.94332490E+00  1.04049708E+00  3.84564151E-01  1.30696427E-01
  4.61000000E+00  1.01100000E+00  3.39000000E-01  7.06000000E-01
Contraction coefficients                   R   N=          94
  5.35079475E-04  4.13649945E-03  2.12565005E-02  8.30304260E-02  2.40761172E-01
  4.49105590E-01  3.42625064E-01  8.82042670E-02  3.85317087E-01 -1.18653192E+00
  6.82257562E-01  3.39268410E-01  1.00000000E+00  1.00000000E+00  3.64400072E-03
  2.87010161E-02  1.29798565E-01  3.64950429E-01  6.07501566E-01  1.00000000E+00
  1.00000000E+00  1.00000000E+00  1.00000000E+00  1.83387182E-01  9.16935910E-01
  1.00000000E+00  1.00000000E+00  5.72273352E-04  4.43532335E-03  2.30201077E-02
  9.28224907E-02  2.93785000E-01  6.74016045E-01  6.38399370E-01  3.95345871E-01
  1.00000000E+00  1.00000000E+00  1.00000000E+00  1.20183322E-02  8.30054218E-02
  3.19917439E-01  7.07155429E-01  1.00000000E+00  1.00000000E+00  1.00000000E+00
  1.00000000E+00  1.00000000E+00  5.72273352E-04  4.43532335E-03  2.30201077E-02
  9.28224907E-02  2.93785000E-01  6.74016045E-01  6.38399370E-01  3.95345871E-01
  1.00000000E+00  1.00000000E+00  1.00000000E+00  1.20183322E-02  8.30054218E-02
  3.19917439E-01  7.07155429E-01  1.00000000E+00  1.00000000E+00  1.00000000E+00
  1.00000000E+00  1.00000000E+00  5.14573896E-04  3.97813448E-03  2.04561787E-02
  8.01481029E-02  2.34547703E-01  4.45433686E-01  3.54668425E-01  1.12936881E-01
  4.83735142E-01 -1.22922974E+00  6.72968216E-01  3.49560514E-01  1.00000000E+00
  1.00000000E+00  3.35025082E-03  2.67639704E-02  1.23626824E-01  3.58457879E-01
  6.16772964E-01  1.00000000E+00  1.00000000E+00  1.00000000E+00  1.00000000E+00
  1.82658350E-01  9.13291752E-01  1.00000000E+00  1.00000000E+00
Coordinates of each shell                  R   N=         144
  0.00000000E+00  1.97215226E-31 -9.65879224E-01  0.00000000E+00  1.97215226E-31
 -9.65879224E-01  0.00000000E+00  1.97215226E-31 -9.65879224E-01  0.00000000E+00
  1.97215226E-31 -9.65879224E-01  0.00000000E+00  1.97215226E-31 -9.65879224E-01
  0.00000000E+00  1.97215226E-31 -9.65879224E-01  0.00000000E+00  1.97215226E-31
 -9.65879224E-01  0.00000000E+00  1.97215226E-31 -9.65879224E-01  0.00000000E+00
  1.97215226E-31 -9.65879224E-01  0.00000000E+00  1.97215226E-31 -9.65879224E-01
  0.00000000E+00  1.97215226E-31 -9.65879224E-01  0.00000000E+00  1.97215226E-31
 -9.65879224E-01  0.00000000E+00  1.97215226E-31 -9.65879224E-01  1.97215226E-31
  2.52251395E+00 -2.03439322E+00  1.97215226E-31  2.52251395E+00 -2.03439322E+00
  1.97215226E-31  2.52251395E+00 -2.03439322E+00  1.97215226E-31  2.52251395E+00
 -2.03439322E+00  1.97215226E-31  2.52251395E+00 -2.03439322E+00  1.97215226E-31
  2.52251395E+00 -2.03439322E+00  1.97215226E-31  2.52251395E+00 -2.03439322E+00
  1.97215226E-31  2.52251395E+00 -2.03439322E+00  1.97215226E-31  2.52251395E+00
 -2.03439322E+00  1.97215226E-31  2.52251395E+00 -2.03439322E+00  1.97215226E-31
  2.52251395E+00 -2.03439322E+00 -3.08918863E-16 -2.52251395E+00 -2.03439322E+00
 -3.08918863E-16 -2.52251395E+00 -2.03439322E+00 -3.08918863E-16 -2.52251395E+00
 -2.03439322E+00 -3.08918863E-16 -2.52251395E+00 -2.03439322E+00 -3.08918863E-16
 -2.52251395E+00 -2.03439322E+00 -3.08918863E-16 -2.52251395E+00 -2.03439322E+00
 -3.08918863E-16 -2.52251395E+00 -2.03439322E+00 -3.08918863E-16 -2.52251395E+00
 -2.03439322E+00 -3.08918863E-16 -2.52251395E+00 -2.03439322E+00 -3.08918863E-16
 -2.52251395E+00 -2.03439322E+00 -3.08918863E-16 -2.52251395E+00 -2.03439322E+00
 -1.97215226E-31  0.00000000E+00  2.76696941E+00 -1.97215226E-31  0.00000000E+00
  2.76696941E+00 -1.97215226E-31  0.00000000E+00  2.76696941E+00 -1.97215226E-31
  0.00000000E+00  2.76696941E+00 -1.97215226E-31  0.00000000E+00  2.76696941E+00
 -1.97215226E-31  0.00000000E+00  2.76696941E+00 -1.97215226E-31  0.00000000E+00
  2.76696941E+00 -1.97215226E-31  0.00000000E+00  2.76696941E+00 -1.97215226E-31
  0.00000000E+00  2.76696941E+00 -1.97215226E-31  0.00000000E+00  2.76696941E+00
 -1.97215226E-31  0.00000000E+00  2.76696941E+00 -1.97215226E-31  0.00000000E+00
  2.76696941E+00 -1.97215226E-31  0.00000000E+00  2.76696941E+00
Num ILSW                                   I              100
ILSW                                       I   N=         100
           0           0           0           0           2           0
           0           0           0           0        1009          -1
           5           0           0           0           2           0
           0           0           1           0           1           0
           1           0           0           0           0           0
           0           0      100000           0          -1           0
           0           0           0           0           0           0
           0           0           0           1           0           0
           0 -2000000000           1           0           0           0
           0           0           4          52           0           0
           0           0          13           0           0           0
           0           0           0           0           0           1
           0           0           0           0           0           0
           0           0           0           0           0           0
           0           0           0           0           0           0
           0           0           0           0           0           0
           0           0           0           0
Num RLSW                                   I               52
RLSW                                       R   N=          52
  7.50000000E-01  7.50000000E-01  1.00000000E+00  1.00000000E+00  2.50000000E-01
  0.00000000E+00  0.00000000E+00  1.00000000E+00  0.00000000E+00  0.00000000E+00
  0.00000000E+00  0.00000000E+00  1.00000000E+00  0.00000000E+00  0.00000000E+00
  0.00000000E+00  0.00000000E+00  1.00000000E+00  0.00000000E+00  0.00000000E+00
  0.00000000E+00  0.00000000E+00  1.00000000E+00  0.00000000E+00  0.00000000E+00
  0.00000000E+00  0.00000000E+00  1.00000000E+00  0.00000000E+00  0.00000000E+00
  0.00000000E+00  0.00000000E+00  1.00000000E+00  0.00000000E+00  0.00000000E+00
  0.00000000E+00  0.00000000E+00  0.00000000E+00  1.00000000E+00  1.00000000E+00
  0.00000000E+00  1.00000000E+00  0.00000000E+00  0.00000000E+00  0.00000000E+00
  0.00000000E+00  0.00000000E+00  0.00000000E+00  0.00000000E+00  0.00000000E+00
  0.00000000E+00  0.00000000E+00
ECP-MxAtEC                                 I           250000
ECP-MaxLECP                                I               10
ECP-MaxAtL                                 I          2250000
ECP-MxTECP                                 I         11250000
ECP-LenNCZ                                 I                0
ECP-KFirst                                 I   N=          40
           0           0           0           0           0           0
           0           0           0           0           0           0
           0           0           0           0           0           0
           0           0           0           0           0           0
           0           0           0           0           0           0
           0           0           0           0           0           0
           0           0           0           0
ECP-KLast                                  I   N=          40
           0           0           0           0           0           0
           0           0           0           0           0           0
           0           0           0           0           0           0
           0           0           0           0           0           0
           0           0           0           0           0           0
           0           0           0           0           0           0
           0           0           0           0
ECP-LMax                                   I   N=           4
           0           0           0           0
ECP-LPSkip                                 I   N=           4
           1           1           1           1
ECP-RNFroz                                 R   N=           4
  0.00000000E+00  0.00000000E+00  0.00000000E+00  0.00000000E+00
ECP-NLP                                    I                0
ECP-CLP1                                   R      0.000000000000000E+00
ECP-CLP2                                   R      0.000000000000000E+00
ECP-ZLP                                    R      0.000000000000000E+00
MxBond                                     I                3
NBond                                      I   N=           4
           3           1           1           1
IBond                                      I   N=          12
           2           3           4           1           0           0
           1           0           0           1           0           0
RBond                                      R   N=          12
  1.00000000E+00  1.00000000E+00  1.00000000E+00  1.00000000E+00  0.00000000E+00
  0.00000000E+00  1.00000000E+00  0.00000000E+00  0.00000000E+00  1.00000000E+00
  0.00000000E+00  0.00000000E+00
Virial Ratio                               R      2.001749819370398E+00
SCF Energy                                 R     -9.517165764930455E+02
Total Energy                               R     -9.517165764930455E+02
RMS Force                                  R      1.319435438467256E-04
RMS Density                                R      2.477723910763146E-09
NImag                                      I                0
Job Status                                 I                1
Nuclear derivative order                   I                2
External E-field                           R   N=          35
  0.00000000E+00  0.00000000E+00  0.00000000E+00  0.00000000E+00  0.00000000E+00
  0.00000000E+00  0.00000000E+00  0.00000000E+00  0.00000000E+00  0.00000000E+00
  0.00000000E+00  0.00000000E+00  0.00000000E+00  0.00000000E+00  0.00000000E+00
  0.00000000E+00  0.00000000E+00  0.00000000E+00  0.00000000E+00  0.00000000E+00
  0.00000000E+00  0.00000000E+00  0.00000000E+00  0.00000000E+00  0.00000000E+00
  0.00000000E+00  0.00000000E+00  0.00000000E+00  0.00000000E+00  0.00000000E+00
  0.00000000E+00  0.00000000E+00  0.00000000E+00  0.00000000E+00  0.00000000E+00
IOpCl                                      I                0
IROHF                                      I                0
Alpha Orbital Energies                     R   N=         136
 -1.01774323E+02 -7.73603070E+01 -1.92474840E+01 -1.92474641E+01 -9.60076702E+00
 -7.33405242E+00 -7.32747583E+00 -7.32602873E+00 -6.74634918E+00 -4.88618081E+00
 -4.88198875E+00 -4.87813974E+00 -1.10697652E+00 -1.05049092E+00 -9.27333317E-01
 -6.01839374E-01 -5.03866485E-01 -4.80869823E-01 -4.75632207E-01 -4.18544075E-01
 -4.01966773E-01 -3.98204062E-01 -3.85687370E-01 -3.58091629E-01 -8.53540702E-02
 -6.96567325E-02  7.89928264E-02  1.06479501E-01  1.49786124E-01  1.95151525E-01
  2.16727709E-01  2.30474056E-01  2.34846598E-01  2.55981513E-01  3.15601977E-01
  3.36666502E-01  3.38121739E-01  3.59428044E-01  4.08197513E-01  4.43306802E-01
  4.55426269E-01  4.67231791E-01  4.74191497E-01  4.93507137E-01  5.04794827E-01
  5.44807875E-01  5.86539513E-01  5.87933886E-01  6.41814803E-01  7.73378085E-01
  8.02220811E-01  8.66969135E-01  8.77821097E-01  9.84564621E-01  1.11017801E+00
  1.12336288E+00  1.16490759E+00  1.25594043E+00  1.28807629E+00  1.31049809E+00
  1.31691147E+00  1.33403798E+00  1.35669183E+00  1.39879909E+00  1.44290529E+00
  1.48877384E+00  1.56493713E+00  1.61856965E+00  1.67766069E+00  1.70838063E+00
  1.71658900E+00  1.72547208E+00  1.73089846E+00  1.80168039E+00  1.80505597E+00
  1.81892209E+00  1.93708788E+00  1.97192035E+00  2.02588079E+00  2.03691524E+00
  2.04784753E+00  2.06183193E+00  2.09165691E+00  2.15520495E+00  2.16536064E+00
  2.19300232E+00  2.22309972E+00  2.24746053E+00  2.29411079E+00  2.30953892E+00
  2.35243613E+00  2.52443776E+00  2.69440783E+00  2.73540256E+00  2.81134496E+00
  2.85047302E+00  2.92568044E+00  2.99505169E+00  3.02648405E+00  3.18779445E+00
  3.59964787E+00  4.02612189E+00  5.10419114E+00  5.10683185E+00  5.11025089E+00
  5.12062745E+00  5.16310915E+00  5.16984609E+00  5.19169866E+00  5.27538461E+00
  5.27954022E+00  5.35574492E+00  5.36271217E+00  5.56650712E+00  5.64123846E+00
  5.71510057E+00  6.25942393E+00  6.29363195E+00  6.31951838E+00  6.32570231E+00
  6.63565159E+00  6.64226502E+00  6.64762481E+00  6.85590191E+00  6.86096646E+00
  6.90955073E+00  7.24378787E+00  7.64262115E+00  8.31730007E+00  1.06872820E+01
  1.07261621E+01  1.10839943E+01  1.59874282E+01  2.48487548E+01  4.34579670E+01
  4.37065870E+01
Alpha MO coefficients                      R   N=       18496
  7.29260367E-06 -2.47317936E-05 -5.92725616E-05 -2.35241806E-04  2.87188414E-03
  0.00000000E+00  0.00000000E+00  1.21742175E-05  0.00000000E+00  0.00000000E+00
 -5.27715443E-05  0.00000000E+00  0.00000000E+00  1.19603072E-04  0.00000000E+00
  0.00000000E+00  3.18329822E-05  0.00000000E+00  0.00000000E+00  9.10660049E-04
  2.08937256E-05  0.00000000E+00  0.00000000E+00  5.60450095E-05  0.00000000E+00
  1.95236181E-05  0.00000000E+00  0.00000000E+00 -5.70063814E-04  0.00000000E+00
 -4.37508797E-05  0.00000000E+00  0.00000000E+00  2.28818090E-05  0.00000000E+00
  0.00000000E+00  0.00000000E+00  1.51833766E-06 -5.24120664E-06  2.69783762E-05
 -2.86320906E-05 -8.81429130E-04  0.00000000E+00 -1.90431003E-05  9.81192594E-06
  0.00000000E+00  9.67757143E-05 -4.40517516E-05  0.00000000E+00  2.06266411E-04
 -3.65651219E-04  1.39698280E-05  0.00000000E+00 -1.05441781E-05  1.50026589E-06
  0.00000000E+00 -5.24787376E-05  0.00000000E+00  3.68320348E-05 -3.22820511E-06
  0.00000000E+00 -8.11116144E-06  0.00000000E+00  9.72537172E-06 -1.06153335E-05
  0.00000000E+00  0.00000000E+00  1.50302136E-06  1.51833766E-06 -5.24120664E-06
  2.69783762E-05 -2.86320906E-05 -8.81429130E-04  0.00000000E+00  1.90431003E-05
  9.81192594E-06  0.00000000E+00 -9.67757143E-05 -4.40517516E-05  0.00000000E+00
 -2.06266411E-04 -3.65651219E-04  1.39698280E-05  0.00000000E+00  1.05441781E-05
  1.50026589E-06  0.00000000E+00 -5.24787376E-05  0.00000000E+00 -3.68320348E-05
 -3.22820511E-06  0.00000000E+00 -8.11116144E-06  0.00000000E+00 -9.72537172E-06
 -1.06153335E-05  0.00000000E+00  0.00000000E+00 -1.50302136E-06  1.00021510E+00
 -3.22390442E-02 -1.03605903E-02  3.89629679E-03 -3.26181766E-03  0.00000000E+00
  0.00000000E+00 -7.94932546E-05  0.00000000E+00  0.00000000E+00  7.98286667E-05
  0.00000000E+00  0.00000000E+00 -8.85720012E-05  0.00000000E+00  0.00000000E+00
 -2.96026287E-06  0.00000000E+00  0.00000000E+00  1.01549323E-03  1.09838977E-04
  0.00000000E+00  0.00000000E+00 -5.93956760E-06  0.00000000E+00 -3.16858189E-04
  0.00000000E+00  0.00000000E+00  2.52481613E-05  0.00000000E+00  2.96579008E-05
  0.00000000E+00  0.00000000E+00 -1.75058463E-05  0.00000000E+00  0.00000000E+00
  0.00000000E+00  9.98296579E-01 -3.05768411E-02 -1.14488689E-02  5.68390756E-03
  4.26036892E-03  0.00000000E+00  0.00000000E+00  9.42759807E-06  0.00000000E+00
  0.00000000E+00  1.45721987E-04  0.00000000E+00  0.00000000E+00 -2.37382121E-04
  0.00000000E+00  0.00000000E+00 -1.48611194E-03  0.00000000E+00  0.00000000E+00
 -8.32469550E-05 -1.80045695E-04  0.00000000E+00  0.00000000E+00 -9.05532290E-04
  0.00000000E+00 -3.87340009E-04  0.00000000E+00  0.00000000E+00 -2.13209472E-03
  0.00000000E+00  9.59355023E-04  0.00000000E+00  0.00000000E+00  1.04625609E-03
  0.00000000E+00  0.00000000E+00  0.00000000E+00  1.39946978E-05 -5.68816174E-05
  7.10019324E-04 -2.06146373E-03 -2.94994197E-03  0.00000000E+00 -2.26126447E-04
  8.83314680E-05  0.00000000E+00  1.85206766E-03 -6.86413547E-04  0.00000000E+00
  8.85407634E-04 -5.22012497E-04 -2.84928910E-05  0.00000000E+00 -3.74037583E-05
 -4.12911209E-05  0.00000000E+00  3.34005440E-04  0.00000000E+00  4.73602930E-04
  6.23120431E-04  0.00000000E+00  1.00742252E-04  0.00000000E+00 -8.09814121E-05
  8.73812145E-05  0.00000000E+00  0.00000000E+00 -7.93649120E-05  1.39946978E-05
 -5.68816174E-05  7.10019324E-04 -2.06146373E-03 -2.94994197E-03  0.00000000E+00
  2.26126447E-04  8.83314680E-05  0.00000000E+00 -1.85206766E-03 -6.86413547E-04
  0.00000000E+00 -8.85407634E-04 -5.22012497E-04 -2.84928910E-05  0.00000000E+00
  3.74037583E-05 -4.12911209E-05  0.00000000E+00  3.34005440E-04  0.00000000E+00
 -4.73602930E-04  6.23120431E-04  0.00000000E+00  1.00742252E-04  0.00000000E+00
  8.09814121E-05  8.73812145E-05  0.00000000E+00  0.00000000E+00  7.93649120E-05
  1.02263702E-05 -2.49155015E-05 -6.70154041E-05  5.31128044E-04 -1.30254975E-03
  0.00000000E+00  0.00000000E+00 -3.31996480E-05  0.00000000E+00  0.00000000E+00
  1.46522729E-04  0.00000000E+00  0.00000000E+00 -4.36688679E-04  0.00000000E+00
  0.00000000E+00  7.38423759E-04  0.00000000E+00  0.00000000E+00  4.15820419E-04
  6.82939308E-05  0.00000000E+00  0.00000000E+00 -1.68924240E-05  0.00000000E+00
 -5.64975119E-04  0.00000000E+00  0.00000000E+00  5.70830982E-05  0.00000000E+00
  2.72036853E-04  0.00000000E+00  0.00000000E+00  1.95332009E-06  0.00000000E+00
  0.00000000E+00  0.00000000E+00  0.00000000E+00  0.00000000E+00  0.00000000E+00
  0.00000000E+00  0.00000000E+00  0.00000000E+00  6.02753325E-05  0.00000000E+00
  0.00000000E+00 -5.08977123E-04  0.00000000E+00  0.00000000E+00  8.14879079E-04
  0.00000000E+00  0.00000000E+00  6.59236533E-03  0.00000000E+00  0.00000000E+00
 -3.96383466E-03  0.00000000E+00  0.00000000E+00  0.00000000E+00 -1.21897058E-03
  0.00000000E+00  0.00000000E+00  0.00000000E+00  0.00000000E+00 -3.01582601E-03
  0.00000000E+00  0.00000000E+00  0.00000000E+00  0.00000000E+00 -4.61871311E-04
  0.00000000E+00  0.00000000E+00  0.00000000E+00 -1.35263381E-03  3.07860966E-01
  4.52356511E-01  2.40690155E-02 -1.75000745E-02  6.21827935E-03  0.00000000E+00
 -1.36243586E-03  6.04378094E-04  0.00000000E+00  3.27934615E-03 -1.62860606E-03
  0.00000000E+00 -9.82333521E-05  1.00477086E-03 -8.19366286E-05  0.00000000E+00
 -1.32306315E-04 -1.55594581E-04  0.00000000E+00  2.71563351E-04  0.00000000E+00
  7.09518896E-04  7.64830656E-04  0.00000000E+00  6.44420357E-05  0.00000000E+00
  3.83174461E-05  1.48756274E-04  0.00000000E+00  0.00000000E+00 -1.10955822E-04
 -3.07860966E-01 -4.52356511E-01 -2.40690155E-02  1.75000745E-02 -6.21827935E-03
  0.00000000E+00 -1.36243586E-03 -6.04378094E-04  0.00000000E+00  3.27934615E-03
  1.62860606E-03  0.00000000E+00 -9.82333521E-05 -1.00477086E-03  8.19366286E-05
  0.00000000E+00 -1.32306315E-04  1.55594581E-04  0.00000000E+00 -2.71563351E-04
  0.00000000E+00  7.09518896E-04 -7.64830656E-04  0.00000000E+00 -6.44420357E-05
  0.00000000E+00  3.83174461E-05 -1.48756274E-04  0.00000000E+00  0.00000000E+00
 -1.10955822E-04  0.00000000E+00  0.00000000E+00  0.00000000E+00  0.00000000E+00
  0.00000000E+00  0.00000000E+00  4.55549206E-06  0.00000000E+00  0.00000000E+00
 -1.51310175E-05  0.00000000E+00  0.00000000E+00  1.52945963E-05  0.00000000E+00
  0.00000000E+00  4.36516105E-05  0.00000000E+00  0.00000000E+00  1.03166712E-03
  0.00000000E+00  0.00000000E+00  0.00000000E+00  6.61527438E-05  0.00000000E+00
  0.00000000E+00  0.00000000E+00  0.00000000E+00 -4.48655201E-04  0.00000000E+00
  0.00000000E+00  0.00000000E+00  0.00000000E+00  3.34182381E-05  0.00000000E+00
  0.00000000E+00  0.00000000E+00  3.71627631E-05  1.11006492E-04 -2.99003351E-04
 -1.01812116E-03  2.64435943E-03 -7.69987894E-03  0.00000000E+00  0.00000000E+00
 -1.33409058E-06  0.00000000E+00  0.00000000E+00  9.72680958E-05  0.00000000E+00
  0.00000000E+00 -2.18807169E-04  0.00000000E+00  0.00000000E+00 -1.22947775E-03
  0.00000000E+00  0.00000000E+00  1.22086721E-03 -2.43887164E-04  0.00000000E+00
  0.00000000E+00 -1.09059678E-03  0.00000000E+00 -1.62690334E-03  0.00000000E+00
  0.00000000E+00 -5.01059609E-04  0.00000000E+00 -2.62502506E-05  0.00000000E+00
  0.00000000E+00  4.16370465E-04  0.00000000E+00  0.00000000E+00  0.00000000E+00
  3.07850972E-01  4.52438183E-01  2.32203182E-02 -1.49659159E-02  8.22809299E-03
  0.00000000E+00 -1.20975936E-03  4.89972195E-04  0.00000000E+00  1.97988166E-03
 -7.78654045E-04  0.00000000E+00 -2.19599472E-03  1.80460569E-04 -4.00092093E-05
  0.00000000E+00 -1.30685875E-04 -9.28341023E-05  0.00000000E+00  1.21182421E-04
  0.00000000E+00  4.44581793E-04  3.15257446E-04  0.00000000E+00  7.85466598E-05