 Default is to use a total of   4 processors:
                                4 via shared-memory
                                1 via Linda
 Entering Link 1 = d:\study\G09W\l1.exe PID=     22604.
  
 Copyright (c) 1988,1990,1992,1993,1995,1998,2003,2009,2010,
            Gaussian, Inc.  All Rights Reserved.
  
 This is part of the Gaussian(R) 09 program.  It is based on
 the Gaussian(R) 03 system (copyright 2003, Gaussian, Inc.),
 the Gaussian(R) 98 system (copyright 1998, Gaussian, Inc.),
 the Gaussian(R) 94 system (copyright 1995, Gaussian, Inc.),
 the Gaussian 92(TM) system (copyright 1992, Gaussian, Inc.),
 the Gaussian 90(TM) system (copyright 1990, Gaussian, Inc.),
 the Gaussian 88(TM) system (copyright 1988, Gaussian, Inc.),
 the Gaussian 86(TM) system (copyright 1986, Carnegie Mellon
 University), and the Gaussian 82(TM) system (copyright 1983,
 Carnegie Mellon University). Gaussian is a federally registered
 trademark of Gaussian, Inc.
  
 This software contains proprietary and confidential information,
 including trade secrets, belonging to Gaussian, Inc.
  
 This software is provided under written license and may be
 used, copied, transmitted, or stored only in accord with that
 written license.
  
 The following legend is applicable only to US Government
 contracts under FAR:
  
                    RESTRICTED RIGHTS LEGEND
  
 Use, reproduction and disclosure by the US Government is
 subject to restrictions as set forth in subparagraphs (a)
 and (c) of the Commercial Computer Software - Restricted
 Rights clause in FAR 52.227-19.
  
 Gaussian, Inc.
 340 Quinnipiac St., Bldg. 40, Wallingford CT 06492
  
  
 ---------------------------------------------------------------
 Warning -- This program may not be used in any manner that
 competes with the business of Gaussian, Inc. or will provide
 assistance to any competitor of Gaussian, Inc.  The licensee
 of this program is prohibited from giving any competitor of
 Gaussian, Inc. access to this program.  By using this program,
 the user acknowledges that Gaussian, Inc. is engaged in the
 business of creating and licensing software in the field of
 computational chemistry and represents and warrants to the
 licensee that it is not a competitor of Gaussian, Inc. and that
 it will not use this program in any manner prohibited above.
 ---------------------------------------------------------------
  

 Cite this work as:
 Gaussian 09, Revision B.01,
 M. J. Frisch, G. W. Trucks, H. B. Schlegel, G. E. Scuseria, 
 M. A. Robb, J. R. Cheeseman, G. Scalmani, V. Barone, B. Mennucci, 
 G. A. Petersson, H. Nakatsuji, M. Caricato, X. Li, H. P. Hratchian, 
 A. F. Izmaylov, J. Bloino, G. Zheng, J. L. Sonnenberg, M. Hada, 
 M. Ehara, K. Toyota, R. Fukuda, J. Hasegawa, M. Ishida, T. Nakajima, 
 Y. Honda, O. Kitao, H. Nakai, T. Vreven, J. A. Montgomery, Jr., 
 J. E. Peralta, F. Ogliaro, M. Bearpark, J. J. Heyd, E. Brothers, 
 K. N. Kudin, V. N. Staroverov, T. Keith, R. Kobayashi, J. Normand, 
 K. Raghavachari, A. Rendell, J. C. Burant, S. S. Iyengar, J. Tomasi, 
 M. Cossi, N. Rega, J. M. Millam, M. Klene, J. E. Knox, J. B. Cross, 
 V. Bakken, C. Adamo, J. Jaramillo, R. Gomperts, R. E. Stratmann, 
 O. Yazyev, A. J. Austin, R. Cammi, C. Pomelli, J. W. Ochterski, 
 R. L. Martin, K. Morokuma, V. G. Zakrzewski, G. A. Voth, 
 P. Salvador, J. J. Dannenberg, S. Dapprich, A. D. Daniels, 
 O. Farkas, J. B. Foresman, J. V. Ortiz, J. Cioslowski, 
 and D. J. Fox, Gaussian, Inc., Wallingford CT, 2010.
 
 ******************************************
 Gaussian 09:  IA32W-G09RevB.01 12-Aug-2010
                08-Feb-2015 
 ******************************************
 ----------------------------------------
 #p PBE1PBE/aug-cc-pVTZ polar CPHF=RdFreq
 ----------------------------------------
 1/38=1,83=1/1;
 2/12=2,17=6,18=5,40=1/2;
 3/5=16,6=1,7=10,11=2,16=1,25=1,30=1,74=-13/1,2,3;
 4//1;
 5/5=2,38=5,98=1/2;
 8/6=4,10=90,11=11/1;
 10/6=1,13=10,72=3/2;
 6/7=2,8=2,9=2,10=2,28=1/1;
 99/5=1,9=1/99;
 Leave Link    1 at Sun Feb 08 18:35:37 2015, MaxMem=          0 cpu:       0.0
 (Enter d:\study\G09W\l101.exe)
 ----
 test
 ----
 Symbolic Z-matrix:
 Charge =  0 Multiplicity = 1
 C                    -0.55392   0.43228   0.14513 
 H                    -1.29461  -0.13845   0.71479 
 H                    -0.40072   1.37811   0.67505 
 H                    -0.99858   0.66864  -0.83681 
 N                     0.70741  -0.31206   0.11165 
 H                     0.5748   -1.18908  -0.38659 
 H                     1.39865   0.20863  -0.42322 
 
 NAtoms=      7 NQM=      7 NQMF=      0 NMic=      0 NMicF=      0 NTot=      7.
                    Isotopes and Nuclear Properties:
 (Nuclear quadrupole moments (NQMom) in fm**2, nuclear magnetic moments (NMagM)
  in nuclear magnetons)

  Atom         1           2           3           4           5           6           7
 IAtWgt=          12           1           1           1          14           1           1
 AtmWgt=  12.0000000   1.0078250   1.0078250   1.0078250  14.0030740   1.0078250   1.0078250
 NucSpn=           0           1           1           1           2           1           1
 AtZEff=   0.0000000   0.0000000   0.0000000   0.0000000   0.0000000   0.0000000   0.0000000
 NQMom=    0.0000000   0.0000000   0.0000000   0.0000000   2.0440000   0.0000000   0.0000000
 NMagM=    0.0000000   2.7928460   2.7928460   2.7928460   0.4037610   2.7928460   2.7928460
 Using perturbation frequencies:    0.000000    0.070000    0.100000
 Leave Link  101 at Sun Feb 08 18:35:37 2015, MaxMem=  196608000 cpu:       0.0
 (Enter d:\study\G09W\l202.exe)
                          Input orientation:                          
 ---------------------------------------------------------------------
 Center     Atomic      Atomic             Coordinates (Angstroms)
 Number     Number       Type             X           Y           Z
 ---------------------------------------------------------------------
      1          6           0       -0.553917    0.432279    0.145134
      2          1           0       -1.294614   -0.138447    0.714788
      3          1           0       -0.400720    1.378106    0.675048
      4          1           0       -0.998581    0.668644   -0.836809
      5          7           0        0.707412   -0.312057    0.111653
      6          1           0        0.574797   -1.189082   -0.386594
      7          1           0        1.398645    0.208633   -0.423220
 ---------------------------------------------------------------------
                    Distance matrix (angstroms):
                    1          2          3          4          5
     1  C    0.000000
     2  H    1.094927   0.000000
     3  H    1.094927   1.760840   0.000000
     4  H    1.103543   1.773834   1.773834   0.000000
     5  N    1.464961   2.098100   2.098100   2.184438   0.000000
     6  H    2.045860   2.410721   2.944346   2.475754   1.017355
     7  H    2.045860   2.944346   2.410721   2.475754   1.017355
                    6          7
     6  H    0.000000
     7  H    1.622860   0.000000
 Stoichiometry    CH5N
 Framework group  CS[SG(CHN),X(H4)]
 Deg. of freedom     9
 Full point group                 CS      NOp   2
 Largest Abelian subgroup         CS      NOp   2
 Largest concise Abelian subgroup CS      NOp   2
                         Standard orientation:                         
 ---------------------------------------------------------------------
 Center     Atomic      Atomic             Coordinates (Angstroms)
 Number     Number       Type             X           Y           Z
 ---------------------------------------------------------------------
      1          6           0        0.051543    0.703790    0.000000
      2          1           0        0.593361    1.064566    0.880420
      3          1           0        0.593361    1.064566   -0.880420
      4          1           0       -0.941895    1.184298    0.000000
      5          7           0        0.051543   -0.761171    0.000000
      6          1           0       -0.457445   -1.103987    0.811430
      7          1           0       -0.457445   -1.103987   -0.811430
 ---------------------------------------------------------------------
 Rotational constants (GHZ):    103.0096893     22.7106369     21.8533420
 Leave Link  202 at Sun Feb 08 18:35:37 2015, MaxMem=  196608000 cpu:       0.0
 (Enter d:\study\G09W\l301.exe)
 Standard basis: Aug-CC-pVTZ (5D, 7F)
 Ernie: Thresh=  0.10000D-02 Tol=  0.10000D-05 Strict=F.
 Ernie:  6 primitive shells out of 115 were deleted.
 There are   122 symmetry adapted basis functions of A'  symmetry.
 There are    85 symmetry adapted basis functions of A"  symmetry.
 Integral buffers will be    262144 words long.
 Raffenetti 2 integral format.
 Two-electron integral symmetry is turned on.
   207 basis functions,   279 primitive gaussians,   235 cartesian basis functions
     9 alpha electrons        9 beta electrons
       nuclear repulsion energy        41.9100863414 Hartrees.
 IExCor= 1009 DFT=T Ex+Corr=PBE1PBE ExCW=0 ScaHFX=  0.250000
 ScaDFX=  0.750000  0.750000  1.000000  1.000000 ScalE2=  1.000000  1.000000
 IRadAn=      0 IRanWt=     -1 IRanGd=            0 ICorTp=0
 NAtoms=    7 NActive=    7 NUniq=    5 SFac= 1.96D+00 NAtFMM=   50 NAOKFM=F Big=F
 Leave Link  301 at Sun Feb 08 18:35:37 2015, MaxMem=  196608000 cpu:       0.0
 (Enter d:\study\G09W\l302.exe)
 NPDir=0 NMtPBC=     1 NCelOv=     1 NCel=       1 NClECP=     1 NCelD=      1
         NCelK=      1 NCelE2=     1 NClLst=     1 CellRange=     0.0.
 One-electron integrals computed using PRISM.
 One-electron integral symmetry used in STVInt
 NBasis=   207 RedAO= T  NBF=   122    85
 NBsUse=   207 1.00D-06 NBFU=   122    85
 Precomputing XC quadrature grid using
 IXCGrd= 2 IRadAn=           0 IRanWt=          -1 IRanGd=           0 AccXCQ= 0.00D+00.
 NRdTot=     454 NPtTot=       58100 NUsed=       60226 NTot=       60242
 NSgBfM=   235   235   235   235   235 NAtAll=     7     7.
 Leave Link  302 at Sun Feb 08 18:35:38 2015, MaxMem=  196608000 cpu:       1.0
 (Enter d:\study\G09W\l303.exe)
 DipDrv:  MaxL=1.
 Leave Link  303 at Sun Feb 08 18:35:38 2015, MaxMem=  196608000 cpu:       0.0
 (Enter d:\study\G09W\l401.exe)
 Harris functional with IExCor= 1009 diagonalized for initial guess.
 ExpMin= 2.53D-02 ExpMax= 1.14D+04 ExpMxC= 3.89D+02 IAcc=3 IRadAn=         0 AccDes= 0.00D+00
 HarFok:  IExCor= 1009 AccDes= 0.00D+00 IRadAn=         0 IDoV= 1
 ScaDFX=  1.000000  1.000000  1.000000  1.000000
 FoFCou: FMM=F IPFlag=           0 FMFlag=      100000 FMFlg1=           0
         NFxFlg=           0 DoJE=T BraDBF=F KetDBF=T FulRan=T
         Omega=  0.000000  0.000000  1.000000  0.000000  0.000000 ICntrl=     500 IOpCl=  0
         NMat0=    1 NMatS0=    1 NMatT0=    0 NMatD0=    1 NMtDS0=    0 NMtDT0=    0
         I1Cent=           4 NGrid=           0.
 Petite list used in FoFCou.
 Harris En= -95.8319462437823    
 Initial guess orbital symmetries:
       Occupied  (A') (A') (A') (A') (A") (A') (A') (A") (A')
       Virtual   (A') (A') (A") (A') (A") (A') (A') (A") (A') (A')
                 (A") (A') (A') (A') (A") (A") (A') (A') (A") (A')
                 (A') (A') (A") (A') (A") (A') (A") (A') (A') (A")
                 (A') (A") (A") (A') (A') (A') (A") (A') (A") (A")
                 (A') (A') (A") (A') (A') (A') (A") (A') (A') (A")
                 (A') (A") (A') (A") (A') (A") (A') (A') (A") (A")
                 (A') (A') (A') (A") (A") (A') (A") (A') (A") (A')
                 (A") (A") (A') (A') (A') (A") (A') (A") (A') (A')
                 (A") (A') (A") (A') (A") (A') (A') (A") (A') (A')
                 (A") (A") (A') (A') (A") (A') (A") (A') (A') (A")
                 (A') (A') (A") (A") (A") (A') (A') (A") (A") (A')
                 (A') (A") (A') (A') (A') (A") (A') (A') (A") (A")
                 (A') (A') (A') (A") (A') (A') (A") (A') (A") (A")
                 (A') (A") (A') (A") (A') (A') (A") (A') (A') (A")
                 (A') (A") (A") (A') (A") (A") (A') (A') (A") (A")
                 (A') (A') (A") (A') (A') (A') (A") (A') (A") (A')
                 (A') (A") (A') (A") (A") (A') (A') (A') (A") (A")
                 (A') (A") (A') (A') (A") (A') (A") (A') (A") (A")
                 (A') (A') (A') (A') (A") (A') (A") (A') (A') (A")
                 (A') (A") (A') (A") (A') (A") (A') (A')
 The electronic state of the initial guess is 1-A'.
 Leave Link  401 at Sun Feb 08 18:35:39 2015, MaxMem=  196608000 cpu:       1.0
 (Enter d:\study\G09W\l502.exe)
 Closed shell SCF:
 Requested convergence on RMS density matrix=1.00D-08 within 128 cycles.
 Requested convergence on MAX density matrix=1.00D-06.
 Requested convergence on             energy=1.00D-06.
 No special actions if energy rises.
 Using DIIS extrapolation, IDIIS=  1040.
 Integral symmetry usage will be decided dynamically.
        60157 words used for storage of precomputed grid.
 IEnd=      246957 IEndB=      246957 NGot=   196608000 MDV=   196433144
 LenX=   196433144 LenY=   196377478
 Fock matrices will be formed incrementally for  20 cycles.

 Cycle   1  Pass 1  IDiag  1:
 FoFCou: FMM=F IPFlag=           0 FMFlag=      100000 FMFlg1=           0
         NFxFlg=           0 DoJE=F BraDBF=F KetDBF=F FulRan=T
         Omega=  0.000000  0.000000  1.000000  0.000000  0.000000 ICntrl=       0 IOpCl=  0
         NMat0=    1 NMatS0=    1 NMatT0=    0 NMatD0=    1 NMtDS0=    0 NMtDT0=    0
         I1Cent=           0 NGrid=           0.
 Petite list used in FoFCou.
 E= -95.6870736447851    
 DIIS: error= 2.46D-02 at cycle   1 NSaved=   1.
 NSaved= 1 IEnMin= 1 EnMin= -95.6870736447851     IErMin= 1 ErrMin= 2.46D-02
 ErrMax= 2.46D-02 EMaxC= 1.00D-01 BMatC= 1.06D-01 BMatP= 1.06D-01
 IDIUse=3 WtCom= 7.54D-01 WtEn= 2.46D-01
 Coeff-Com:  0.100D+01
 Coeff-En:   0.100D+01
 Coeff:      0.100D+01
 Gap=     0.154 Goal=   None    Shift=    0.000
 GapD=    0.154 DampG=1.000 DampE=0.500 DampFc=0.5000 IDamp=-1.
 Damping current iteration by 5.00D-01
 RMSDP=1.72D-03 MaxDP=5.10D-02              OVMax= 2.04D-01

 Cycle   2  Pass 1  IDiag  1:
 RMSU=  5.85D-04    CP:  9.72D-01
 E= -95.7228361697898     Delta-E=       -0.035762525005 Rises=F Damp=T
 DIIS: error= 6.75D-03 at cycle   2 NSaved=   2.
 NSaved= 2 IEnMin= 2 EnMin= -95.7228361697898     IErMin= 2 ErrMin= 6.75D-03
 ErrMax= 6.75D-03 EMaxC= 1.00D-01 BMatC= 7.09D-03 BMatP= 1.06D-01
 IDIUse=3 WtCom= 9.32D-01 WtEn= 6.75D-02
 Coeff-Com:  0.108D+00 0.892D+00
 Coeff-En:   0.218D+00 0.782D+00
 Coeff:      0.115D+00 0.885D+00
 Gap=     0.256 Goal=   None    Shift=    0.000
 RMSDP=6.05D-04 MaxDP=1.73D-02 DE=-3.58D-02 OVMax= 1.31D-01

 Cycle   3  Pass 1  IDiag  1:
 RMSU=  4.19D-04    CP:  9.78D-01  8.66D-01
 E= -95.7772342829591     Delta-E=       -0.054398113169 Rises=F Damp=F
 DIIS: error= 4.57D-03 at cycle   3 NSaved=   3.
 NSaved= 3 IEnMin= 3 EnMin= -95.7772342829591     IErMin= 3 ErrMin= 4.57D-03
 ErrMax= 4.57D-03 EMaxC= 1.00D-01 BMatC= 1.61D-03 BMatP= 7.09D-03
 IDIUse=3 WtCom= 9.54D-01 WtEn= 4.57D-02
 Coeff-Com: -0.143D-01 0.277D+00 0.738D+00
 Coeff-En:   0.000D+00 0.000D+00 0.100D+01
 Coeff:     -0.136D-01 0.264D+00 0.750D+00
 Gap=     0.250 Goal=   None    Shift=    0.000
 RMSDP=1.47D-04 MaxDP=4.85D-03 DE=-5.44D-02 OVMax= 1.28D-02

 Cycle   4  Pass 1  IDiag  1:
 RMSU=  1.02D-04    CP:  9.77D-01  9.01D-01  9.87D-01
 E= -95.7782129990156     Delta-E=       -0.000978716057 Rises=F Damp=F
 DIIS: error= 1.91D-03 at cycle   4 NSaved=   4.
 NSaved= 4 IEnMin= 4 EnMin= -95.7782129990156     IErMin= 4 ErrMin= 1.91D-03
 ErrMax= 1.91D-03 EMaxC= 1.00D-01 BMatC= 4.38D-04 BMatP= 1.61D-03
 IDIUse=3 WtCom= 9.81D-01 WtEn= 1.91D-02
 Coeff-Com: -0.146D-01 0.625D-01 0.379D+00 0.573D+00
 Coeff-En:   0.000D+00 0.000D+00 0.185D+00 0.815D+00
 Coeff:     -0.144D-01 0.613D-01 0.375D+00 0.578D+00
 Gap=     0.252 Goal=   None    Shift=    0.000
 RMSDP=5.35D-05 MaxDP=2.20D-03 DE=-9.79D-04 OVMax= 5.74D-03

 Cycle   5  Pass 1  IDiag  1:
 RMSU=  2.40D-05    CP:  9.77D-01  8.98D-01  9.75D-01  7.17D-01
 E= -95.7785807801439     Delta-E=       -0.000367781128 Rises=F Damp=F
 DIIS: error= 3.67D-04 at cycle   5 NSaved=   5.
 NSaved= 5 IEnMin= 5 EnMin= -95.7785807801439     IErMin= 5 ErrMin= 3.67D-04
 ErrMax= 3.67D-04 EMaxC= 1.00D-01 BMatC= 1.02D-05 BMatP= 4.38D-04
 IDIUse=3 WtCom= 9.96D-01 WtEn= 3.67D-03
 Coeff-Com: -0.395D-02 0.551D-02 0.926D-01 0.209D+00 0.697D+00
 Coeff-En:   0.000D+00 0.000D+00 0.000D+00 0.000D+00 0.100D+01
 Coeff:     -0.394D-02 0.549D-02 0.922D-01 0.208D+00 0.698D+00
 Gap=     0.251 Goal=   None    Shift=    0.000
 RMSDP=1.15D-05 MaxDP=4.47D-04 DE=-3.68D-04 OVMax= 7.64D-04

 Cycle   6  Pass 1  IDiag  1:
 RMSU=  5.99D-06    CP:  9.77D-01  8.96D-01  9.84D-01  7.53D-01  9.46D-01
 E= -95.7785890680483     Delta-E=       -0.000008287904 Rises=F Damp=F
 DIIS: error= 1.36D-05 at cycle   6 NSaved=   6.
 NSaved= 6 IEnMin= 6 EnMin= -95.7785890680483     IErMin= 6 ErrMin= 1.36D-05
 ErrMax= 1.36D-05 EMaxC= 1.00D-01 BMatC= 1.78D-08 BMatP= 1.02D-05
 IDIUse=1 WtCom= 1.00D+00 WtEn= 0.00D+00
 Coeff-Com:  0.361D-03-0.101D-02-0.361D-02-0.436D-02 0.123D-01 0.996D+00
 Coeff:      0.361D-03-0.101D-02-0.361D-02-0.436D-02 0.123D-01 0.996D+00
 Gap=     0.251 Goal=   None    Shift=    0.000
 RMSDP=1.92D-06 MaxDP=7.92D-05 DE=-8.29D-06 OVMax= 1.05D-04

 Cycle   7  Pass 1  IDiag  1:
 RMSU=  4.98D-07    CP:  9.77D-01  8.95D-01  9.85D-01  7.57D-01  9.74D-01
                    CP:  1.10D+00
 E= -95.7785890896904     Delta-E=       -0.000000021642 Rises=F Damp=F
 DIIS: error= 2.82D-06 at cycle   7 NSaved=   7.
 NSaved= 7 IEnMin= 7 EnMin= -95.7785890896904     IErMin= 7 ErrMin= 2.82D-06
 ErrMax= 2.82D-06 EMaxC= 1.00D-01 BMatC= 1.06D-09 BMatP= 1.78D-08
 IDIUse=1 WtCom= 1.00D+00 WtEn= 0.00D+00
 Coeff-Com:  0.103D-03-0.241D-03-0.203D-02-0.320D-02-0.856D-02 0.179D+00
 Coeff-Com:  0.835D+00
 Coeff:      0.103D-03-0.241D-03-0.203D-02-0.320D-02-0.856D-02 0.179D+00
 Coeff:      0.835D+00
 Gap=     0.251 Goal=   None    Shift=    0.000
 RMSDP=2.24D-07 MaxDP=9.79D-06 DE=-2.16D-08 OVMax= 1.26D-05

 Cycle   8  Pass 1  IDiag  1:
 RMSU=  6.96D-08    CP:  9.77D-01  8.95D-01  9.85D-01  7.58D-01  9.77D-01
                    CP:  1.11D+00  1.04D+00
 E= -95.7785890907883     Delta-E=       -0.000000001098 Rises=F Damp=F
 DIIS: error= 5.36D-07 at cycle   8 NSaved=   8.
 NSaved= 8 IEnMin= 8 EnMin= -95.7785890907883     IErMin= 8 ErrMin= 5.36D-07
 ErrMax= 5.36D-07 EMaxC= 1.00D-01 BMatC= 3.86D-11 BMatP= 1.06D-09
 IDIUse=1 WtCom= 1.00D+00 WtEn= 0.00D+00
 Coeff-Com: -0.178D-05 0.260D-05-0.200D-03-0.260D-03-0.184D-02-0.526D-02
 Coeff-Com:  0.173D+00 0.834D+00
 Coeff:     -0.178D-05 0.260D-05-0.200D-03-0.260D-03-0.184D-02-0.526D-02
 Coeff:      0.173D+00 0.834D+00
 Gap=     0.251 Goal=   None    Shift=    0.000
 RMSDP=4.75D-08 MaxDP=2.13D-06 DE=-1.10D-09 OVMax= 2.54D-06

 Cycle   9  Pass 1  IDiag  1:
 RMSU=  1.33D-08    CP:  9.77D-01  8.95D-01  9.85D-01  7.58D-01  9.77D-01
                    CP:  1.12D+00  1.06D+00  9.24D-01
 E= -95.7785890908261     Delta-E=       -0.000000000038 Rises=F Damp=F
 DIIS: error= 7.74D-08 at cycle   9 NSaved=   9.
 NSaved= 9 IEnMin= 9 EnMin= -95.7785890908261     IErMin= 9 ErrMin= 7.74D-08
 ErrMax= 7.74D-08 EMaxC= 1.00D-01 BMatC= 8.33D-13 BMatP= 3.86D-11
 IDIUse=1 WtCom= 1.00D+00 WtEn= 0.00D+00
 Coeff-Com: -0.299D-05 0.574D-05 0.836D-06 0.870D-06-0.188D-03-0.561D-02
 Coeff-Com:  0.116D-01 0.159D+00 0.835D+00
 Coeff:     -0.299D-05 0.574D-05 0.836D-06 0.870D-06-0.188D-03-0.561D-02
 Coeff:      0.116D-01 0.159D+00 0.835D+00
 Gap=     0.251 Goal=   None    Shift=    0.000
 RMSDP=6.77D-09 MaxDP=4.21D-07 DE=-3.78D-11 OVMax= 5.38D-07

 SCF Done:  E(RPBE1PBE) =  -95.7785890908     A.U. after    9 cycles
             Convg  =    0.6772D-08             -V/T =  2.0069
 KE= 9.512001335260D+01 PE=-3.064892757236D+02 EE= 7.368058693883D+01
 Leave Link  502 at Sun Feb 08 18:36:19 2015, MaxMem=  196608000 cpu:      40.0
 (Enter d:\study\G09W\l801.exe)
 Range of M.O.s used for correlation:     1   207
 NBasis=   207 NAE=     9 NBE=     9 NFC=     0 NFV=     0
 NROrb=    207 NOA=     9 NOB=     9 NVA=   198 NVB=   198

 **** Warning!!: The largest alpha MO coefficient is  0.42087053D+02

 Leave Link  801 at Sun Feb 08 18:36:19 2015, MaxMem=  196608000 cpu:       0.0
 (Enter d:\study\G09W\l1002.exe)
 Minotr:  Closed shell wavefunction.
          Direct CPHF calculation.
          Differentiating once with respect to electric field.
                with respect to dipole field.
          Electric field/nuclear overlap derivatives assumed to be zero.
          Requested convergence is 1.0D-08 RMS, and 1.0D-07 maximum.
          NewPWx=F KeepS1=T KeepF1=T KeepIn=T MapXYZ=F SortEE=F KeepMc=T.
          MDV=     196607954 using IRadAn=       2.
 Generate precomputed XC quadrature information.
          Solving linear equations separately, MaxMat=       0.
          Doing perturbations at frequencies    0.000000    0.070000    0.100000
          There are     9 degrees of freedom in the 1st order CPHF.  IDoFFX=0.
 LinEq1:  Iter=  0 NonCon=     9 RMS=9.80D-02 Max=1.85D+00
 AX will form     9 AO Fock derivatives at one time.
 Integrals replicated using symmetry in FoFDir.
 MinBra= 0 MaxBra= 3 Meth= 1.
 IRaf=       0 NMat=  18 IRICut=      22 DoRegI=T DoRafI=T ISym2E= 2 JSym2E=2.
 LinEq1:  Iter=  1 NonCon=     9 RMS=3.39D-02 Max=6.45D-01
 LinEq1:  Iter=  2 NonCon=     9 RMS=1.96D-02 Max=3.81D-01
 LinEq1:  Iter=  3 NonCon=     9 RMS=7.26D-03 Max=2.05D-01
 LinEq1:  Iter=  4 NonCon=     9 RMS=2.21D-03 Max=3.64D-02
 LinEq1:  Iter=  5 NonCon=     9 RMS=9.13D-04 Max=1.51D-02
 LinEq1:  Iter=  6 NonCon=     9 RMS=2.68D-04 Max=5.67D-03
 LinEq1:  Iter=  7 NonCon=     9 RMS=5.28D-05 Max=1.19D-03
 LinEq1:  Iter=  8 NonCon=     8 RMS=1.07D-05 Max=2.95D-04
 LinEq1:  Iter=  9 NonCon=     6 RMS=2.29D-06 Max=4.37D-05
 LinEq1:  Iter= 10 NonCon=     6 RMS=4.27D-07 Max=6.08D-06
 LinEq1:  Iter= 11 NonCon=     5 RMS=9.17D-08 Max=1.26D-06
 LinEq1:  Iter= 12 NonCon=     2 RMS=1.65D-08 Max=3.29D-07
 LinEq1:  Iter= 13 NonCon=     0 RMS=2.27D-09 Max=3.55D-08
 Linear equations converged to 1.000D-08 1.000D-07 after    13 iterations.
 FullF1:  Do perturbations    1 to     9.
 SCF Polarizability for W=    0.000000:
                1             2             3 
      1  0.250462D+02
      2 -0.883003D-01  0.288911D+02
      3  0.000000D+00  0.000000D+00  0.244358D+02
 Isotropic polarizability for W=    0.000000       26.12 Bohr**3.
 SCF Polarizability for W=    0.070000:
                1             2             3 
      1  0.256635D+02
      2 -0.177767D+00  0.295256D+02
      3  0.000000D+00  0.000000D+00  0.248456D+02
 Isotropic polarizability for W=    0.070000       26.68 Bohr**3.
 SCF Polarizability for W=    0.100000:
                1             2             3 
      1  0.263876D+02
      2 -0.292582D+00  0.302425D+02
      3  0.000000D+00  0.000000D+00  0.252942D+02
 Isotropic polarizability for W=    0.100000       27.31 Bohr**3.
 SCF Static Hyperpolarizability:
 K=  1 block:
                1 
      1 -0.131731D+02
 K=  2 block:
                1             2 
      1 -0.493789D+01
      2 -0.136477D+02  0.354840D+02
 K=  3 block:
                1             2             3 
      1  0.000000D+00
      2  0.000000D+00  0.000000D+00
      3  0.276357D+01 -0.134220D+01  0.000000D+00
 SCF Beta(-W,W;0) for W=    0.070000:
 K=  1 block:
                1             2             3 
      1 -0.163349D+02
      2 -0.736905D+01 -0.165933D+02
      3  0.000000D+00  0.000000D+00  0.291832D+01
 K=  2 block:
                1             2             3 
      1 -0.894706D+01
      2 -0.154738D+02  0.403418D+02
      3  0.000000D+00  0.000000D+00 -0.124050D+01
 K=  3 block:
                1             2             3 
      1  0.000000D+00
      2  0.000000D+00  0.000000D+00
      3  0.279687D+01 -0.160983D+01  0.000000D+00
 SCF Beta(-W,W;0) for W=    0.100000:
 K=  1 block:
                1             2             3 
      1 -0.204984D+02
      2 -0.111474D+02 -0.204788D+02
      3  0.000000D+00  0.000000D+00  0.278051D+01
 K=  2 block:
                1             2             3 
      1 -0.158428D+02
      2 -0.173759D+02  0.461901D+02
      3  0.000000D+00  0.000000D+00 -0.118483D+01
 K=  3 block:
                1             2             3 
      1  0.000000D+00
      2  0.000000D+00  0.000000D+00
      3  0.230880D+01 -0.208703D+01  0.000000D+00
 End of Minotr Frequency-dependent properties on file   721 Mask=      11 NFrqRd=     3 NDeriv=     1 LenFil=      86:
 Frequencies=    0.000000    0.070000    0.100000
 Property number 1 -- Alpha(-w,w) frequency  1    0.000000:
                 1             2             3 
      1   0.250462D+02 -0.883003D-01  0.000000D+00
      2  -0.883003D-01  0.288911D+02  0.000000D+00
      3   0.000000D+00  0.000000D+00  0.244358D+02
 Property number 1 -- Alpha(-w,w) frequency  2    0.070000:
                 1             2             3 
      1   0.256635D+02 -0.177767D+00  0.000000D+00
      2  -0.177767D+00  0.295256D+02  0.000000D+00
      3   0.000000D+00  0.000000D+00  0.248456D+02
 Property number 1 -- Alpha(-w,w) frequency  3    0.100000:
                 1             2             3 
      1   0.263876D+02 -0.292582D+00  0.000000D+00
      2  -0.292582D+00  0.302425D+02  0.000000D+00
      3   0.000000D+00  0.000000D+00  0.252942D+02
 Property number 5 -- Beta(-w,w,0) frequency  1    0.000000:
                 1 
      1  -0.131731D+02
      2  -0.493789D+01
      3  -0.136477D+02
      4   0.000000D+00
      5   0.000000D+00
      6   0.276357D+01
      7  -0.493789D+01
      8  -0.136477D+02
      9   0.354840D+02
     10   0.000000D+00
     11   0.000000D+00
     12  -0.134220D+01
     13   0.000000D+00
     14   0.000000D+00
     15   0.000000D+00
     16   0.276357D+01
     17  -0.134220D+01
     18   0.000000D+00
 Property number 5 -- Beta(-w,w,0) frequency  2    0.070000:
                 1 
      1  -0.163349D+02
      2  -0.736905D+01
      3  -0.165933D+02
      4   0.000000D+00
      5   0.000000D+00
      6   0.291832D+01
      7  -0.894706D+01
      8  -0.154738D+02
      9   0.403418D+02
     10   0.000000D+00
     11   0.000000D+00
     12  -0.124050D+01
     13   0.000000D+00
     14   0.000000D+00
     15   0.000000D+00
     16   0.279687D+01
     17  -0.160983D+01
     18   0.000000D+00
 Property number 5 -- Beta(-w,w,0) frequency  3    0.100000:
                 1 
      1  -0.204984D+02
      2  -0.111474D+02
      3  -0.204788D+02
      4   0.000000D+00
      5   0.000000D+00
      6   0.278051D+01
      7  -0.158428D+02
      8  -0.173759D+02
      9   0.461901D+02
     10   0.000000D+00
     11   0.000000D+00
     12  -0.118483D+01
     13   0.000000D+00
     14   0.000000D+00
     15   0.000000D+00
     16   0.230880D+01
     17  -0.208703D+01
     18   0.000000D+00
 End of Minotr Frequency-dependent properties file   722 does not exist.
 Leave Link 1002 at Sun Feb 08 18:41:13 2015, MaxMem=  196608000 cpu:     293.0
 (Enter d:\study\G09W\l601.exe)
 Copying SCF densities to generalized density rwf, IOpCl= 0 IROHF=0.

 **********************************************************************

            Population analysis using the SCF density.

 **********************************************************************

 Orbital symmetries:
       Occupied  (A') (A') (A') (A') (A") (A') (A') (A") (A')
       Virtual   (A') (A') (A") (A') (A") (A') (A') (A") (A') (A')
                 (A') (A") (A') (A") (A') (A") (A') (A') (A") (A')
                 (A') (A") (A') (A") (A') (A') (A") (A') (A') (A")
                 (A") (A') (A") (A') (A') (A") (A') (A') (A") (A")
                 (A') (A') (A") (A') (A') (A') (A") (A') (A") (A')
                 (A') (A") (A') (A") (A') (A") (A') (A') (A") (A")
                 (A') (A') (A') (A") (A") (A') (A") (A') (A") (A')
                 (A") (A") (A') (A') (A') (A") (A') (A") (A') (A")
                 (A') (A') (A") (A') (A") (A') (A') (A") (A') (A')
                 (A") (A") (A') (A') (A") (A') (A") (A') (A') (A')
                 (A") (A") (A') (A") (A") (A') (A') (A") (A") (A')
                 (A') (A") (A') (A') (A') (A") (A') (A") (A') (A")
                 (A') (A') (A') (A") (A') (A') (A") (A') (A") (A")
                 (A') (A") (A') (A") (A') (A') (A") (A') (A') (A")
                 (A') (A") (A") (A') (A") (A') (A") (A') (A") (A")
                 (A') (A') (A") (A') (A') (A') (A") (A') (A") (A')
                 (A') (A") (A') (A") (A") (A') (A') (A") (A') (A")
                 (A') (A") (A') (A') (A") (A') (A") (A') (A") (A")
                 (A') (A') (A') (A') (A") (A') (A") (A') (A") (A')
                 (A') (A") (A') (A") (A') (A") (A') (A')
 The electronic state is 1-A'.
 Alpha  occ. eigenvalues --  -14.36689 -10.23809  -0.90068  -0.67819  -0.50295
 Alpha  occ. eigenvalues --   -0.45399  -0.41363  -0.37742  -0.25565
 Alpha virt. eigenvalues --   -0.00419   0.01645   0.02393   0.03007   0.05236
 Alpha virt. eigenvalues --    0.06513   0.08957   0.09130   0.09837   0.10250
 Alpha virt. eigenvalues --    0.10769   0.11814   0.13182   0.15340   0.17530
 Alpha virt. eigenvalues --    0.17757   0.19426   0.20987   0.22729   0.23052
 Alpha virt. eigenvalues --    0.26783   0.26883   0.27382   0.28239   0.29837
 Alpha virt. eigenvalues --    0.30874   0.32341   0.32910   0.34271   0.34272
 Alpha virt. eigenvalues --    0.35941   0.36341   0.36662   0.37003   0.39213
 Alpha virt. eigenvalues --    0.41542   0.41680   0.43508   0.43741   0.49090
 Alpha virt. eigenvalues --    0.50474   0.51850   0.52874   0.54305   0.62533
 Alpha virt. eigenvalues --    0.64081   0.67550   0.68176   0.69924   0.70508
 Alpha virt. eigenvalues --    0.71828   0.76434   0.77760   0.78606   0.80868
 Alpha virt. eigenvalues --    0.81459   0.82841   0.83535   0.84854   0.85413
 Alpha virt. eigenvalues --    0.86220   0.87908   0.92699   0.94179   0.94614
 Alpha virt. eigenvalues --    0.96660   0.96830   0.98293   0.98785   1.01175
 Alpha virt. eigenvalues --    1.02679   1.05543   1.06960   1.10544   1.11732
 Alpha virt. eigenvalues --    1.13111   1.14163   1.16460   1.18413   1.20741
 Alpha virt. eigenvalues --    1.22709   1.25719   1.29468   1.30599   1.31469
 Alpha virt. eigenvalues --    1.33283   1.42106   1.43036   1.45749   1.46518
 Alpha virt. eigenvalues --    1.46945   1.49320   1.51860   1.53164   1.57876
 Alpha virt. eigenvalues --    1.62293   1.63635   1.72055   1.73585   1.77976
 Alpha virt. eigenvalues --    1.77985   1.80663   1.81285   1.84017   1.87326
 Alpha virt. eigenvalues --    1.89473   1.98585   1.99738   2.01033   2.02324
 Alpha virt. eigenvalues --    2.05200   2.10076   2.18220   2.20928   2.21467
 Alpha virt. eigenvalues --    2.26639   2.29137   2.32116   2.33148   2.45288
 Alpha virt. eigenvalues --    2.62890   2.82570   3.06575   3.07158   3.07993
 Alpha virt. eigenvalues --    3.26577   3.28370   3.28805   3.29959   3.33215
 Alpha virt. eigenvalues --    3.37147   3.43809   3.51749   3.55311   3.56285
 Alpha virt. eigenvalues --    3.58897   3.62770   3.68404   3.75429   3.77766
 Alpha virt. eigenvalues --    3.79263   3.80130   3.85171   3.88817   3.90239
 Alpha virt. eigenvalues --    3.96414   3.97265   3.99039   4.05839   4.08335
 Alpha virt. eigenvalues --    4.12435   4.16715   4.24575   4.27156   4.31415
 Alpha virt. eigenvalues --    4.35938   4.38999   4.40999   4.45641   4.45969
 Alpha virt. eigenvalues --    4.54629   4.56534   4.64253   4.66087   4.71774
 Alpha virt. eigenvalues --    4.73420   4.76951   4.78767   4.79534   4.86005
 Alpha virt. eigenvalues --    4.86573   4.90472   4.99930   5.11112   5.17409
 Alpha virt. eigenvalues --    5.19892   5.20818   5.37405   5.42484   5.46187
 Alpha virt. eigenvalues --    5.51238   5.57548   5.59441   5.72996   5.73869
 Alpha virt. eigenvalues --    5.78512   5.84565   5.99434   6.15172   6.15218
 Alpha virt. eigenvalues --    6.33376   6.35799   6.38355   6.59831   6.64541
 Alpha virt. eigenvalues --    7.35312  15.91118  17.04856
          Condensed to atoms (all electrons):
              1          2          3          4          5          6
     1  C    5.267561   0.405531   0.405531   0.405807   0.073657   0.012080
     2  H    0.405531   0.344636   0.004570   0.005908  -0.018796  -0.003096
     3  H    0.405531   0.004570   0.344636   0.005908  -0.018796   0.000418
     4  H    0.405807   0.005908   0.005908   0.368591  -0.033578   0.003785
     5  N    0.073657  -0.018796  -0.018796  -0.033578   6.814433   0.274731
     6  H    0.012080  -0.003096   0.000418   0.003785   0.274731   0.654601
     7  H    0.012080   0.000418  -0.003096   0.003785   0.274731  -0.036107
              7
     1  C    0.012080
     2  H    0.000418
     3  H   -0.003096
     4  H    0.003785
     5  N    0.274731
     6  H   -0.036107
     7  H    0.654601
 Mulliken atomic charges:
              1
     1  C   -0.582246
     2  H    0.260830
     3  H    0.260830
     4  H    0.239793
     5  N   -0.366383
     6  H    0.093589
     7  H    0.093589
 Sum of Mulliken atomic charges =   0.00000
 Mulliken charges with hydrogens summed into heavy atoms:
              1
     1  C    0.179206
     5  N   -0.179206
 Sum of Mulliken charges with hydrogens summed into heavy atoms =   0.00000
 Electronic spatial extent (au):  <R**2>=             95.8998
 Charge=              0.0000 electrons
 Dipole moment (field-independent basis, Debye):
    X=             -1.2868    Y=              0.3820    Z=              0.0000  Tot=              1.3423
 Quadrupole moment (field-independent basis, Debye-Ang):
   XX=            -15.0819   YY=            -14.5285   ZZ=            -12.7004
   XY=              2.1561   XZ=              0.0000   YZ=              0.0000
 Traceless Quadrupole moment (field-independent basis, Debye-Ang):
   XX=             -0.9783   YY=             -0.4249   ZZ=              1.4032
   XY=              2.1561   XZ=              0.0000   YZ=              0.0000
 Octapole moment (field-independent basis, Debye-Ang**2):
  XXX=             -1.4169  YYY=             -1.9544  ZZZ=              0.0000  XYY=             -2.4910
  XXY=              0.5052  XXZ=              0.0000  XZZ=             -0.5321  YZZ=             -1.8772
  YYZ=              0.0000  XYZ=              0.0000
 Hexadecapole moment (field-independent basis, Debye-Ang**3):
 XXXX=            -26.3877 YYYY=            -79.5722 ZZZZ=            -24.2480 XXXY=             -1.1114
 XXXZ=              0.0000 YYYX=              1.8997 YYYZ=              0.0000 ZZZX=              0.0000
 ZZZY=              0.0000 XXYY=            -17.9294 XXZZ=             -8.0812 YYZZ=            -15.3190
 XXYZ=              0.0000 YYXZ=              0.0000 ZZXY=              1.5181
 N-N= 4.191008634140D+01 E-N=-3.064892751359D+02  KE= 9.512001335260D+01
 Symmetry A'   KE= 9.043628189888D+01
 Symmetry A"   KE= 4.683731453711D+00
  Exact polarizability:  25.046  -0.088  28.891   0.000   0.000  24.436
 Approx polarizability:  31.046   0.120  33.372   0.000   0.000  31.624
 No NMR shielding tensors so no spin-rotation constants.
 Leave Link  601 at Sun Feb 08 18:41:13 2015, MaxMem=  196608000 cpu:       0.0
 (Enter d:\study\G09W\l9999.exe)
 AllDun Frequency-dependent properties on file 20721 Mask=      11 NFrqRd=     3 NDeriv=     1 LenFil=      86:
 Frequencies=    0.000000    0.070000    0.100000
 Property number 1 -- Alpha(-w,w) frequency  1    0.000000:
                 1             2             3 
      1   0.277439D+02 -0.194971D+01  0.725901D-02
      2  -0.194971D+01  0.255853D+02  0.116561D-01
      3   0.725901D-02  0.116561D-01  0.250439D+02
 Property number 1 -- Alpha(-w,w) frequency  2    0.070000:
                 1             2             3 
      1   0.283253D+02 -0.204877D+01  0.862235D-01
      2  -0.204877D+01  0.260524D+02 -0.295616D-01
      3   0.862235D-01 -0.295616D-01  0.256569D+02
 Property number 1 -- Alpha(-w,w) frequency  3    0.100000:
                 1             2             3 
      1   0.289792D+02 -0.216714D+01  0.188244D+00
      2  -0.216714D+01  0.265694D+02 -0.826161D-01
      3   0.188244D+00 -0.826161D-01  0.263757D+02
 Property number 5 -- Beta(-w,w,0) frequency  1    0.000000:
                 1 
      1  -0.226221D+02
      2   0.145733D+02
      3  -0.756077D+01
      4  -0.856683D+01
      5   0.673935D+01
      6   0.428887D+01
      7   0.145733D+02
      8  -0.756077D+01
      9   0.310172D+01
     10   0.673935D+01
     11  -0.130284D+01
     12  -0.302508D+01
     13  -0.856683D+01
     14   0.673935D+01
     15  -0.130284D+01
     16   0.428887D+01
     17  -0.302508D+01
     18  -0.135077D+02
 Property number 5 -- Beta(-w,w,0) frequency  2    0.070000:
                 1 
      1  -0.257697D+02
      2   0.164876D+02
      3  -0.883216D+01
      4  -0.965983D+01
      5   0.749126D+01
      6   0.770428D+01
      7   0.166508D+02
      8  -0.850406D+01
      9   0.356317D+01
     10   0.744798D+01
     11  -0.174984D+01
     12  -0.512775D+01
     13  -0.105024D+02
     14   0.802115D+01
     15  -0.193234D+01
     16   0.636661D+01
     17  -0.434269D+01
     18  -0.168705D+02
 Property number 5 -- Beta(-w,w,0) frequency  3    0.100000:
                 1 
      1  -0.294777D+02
      2   0.188454D+02
      3  -0.104050D+02
      4  -0.108169D+02
      5   0.803477D+01
      6   0.135840D+02
      7   0.192340D+02
      8  -0.960289D+01
      9   0.396910D+01
     10   0.791034D+01
     11  -0.261502D+01
     12  -0.868495D+01
     13  -0.131258D+02
     14   0.956131D+01
     15  -0.302271D+01
     16   0.959791D+01
     17  -0.634836D+01
     18  -0.213620D+02

 ----------------------------------------------------------------------

 Electric dipole moment (input orientation):
 (Debye = 10**-18 statcoulomb cm , SI units = C m)
                  (au)            (Debye)         (10**-30 SI)
   Tot        0.528113D+00      0.134233D+01      0.447753D+01
   x         -0.145169D+00     -0.368982D+00     -0.123079D+01
   y          0.723962D-01      0.184013D+00      0.613800D+00
   z         -0.502582D+00     -0.127744D+01     -0.426106D+01

 Dipole polarizability, Alpha (input orientation).
 (esu units = cm**3 , SI units = C**2 m**2 J**-1)
 Alpha(0;0):
               (au)            (10**-24 esu)      (10**-40 SI)
   iso        0.261244D+02      0.387123D+01      0.430733D+01
   aniso      0.418643D+01      0.620366D+00      0.690250D+00
   xx         0.277439D+02      0.411123D+01      0.457436D+01
   yx        -0.194971D+01     -0.288918D+00     -0.321464D+00
   yy         0.255853D+02      0.379135D+01      0.421845D+01
   zx         0.725901D-02      0.107567D-02      0.119685D-02
   zy         0.116561D-01      0.172726D-02      0.192183D-02
   zz         0.250439D+02      0.371112D+01      0.412918D+01
 Alpha(-w;w) w=  650.9nm:
                  (au)         (10**-24 esu)      (10**-40 SI)
   iso        0.266782D+02      0.395330D+01      0.439864D+01
   aniso      0.434035D+01      0.643174D+00      0.715627D+00
   xx         0.283253D+02      0.419738D+01      0.467021D+01
   yx        -0.204877D+01     -0.303597D+00     -0.337797D+00
   yy         0.260524D+02      0.386057D+01      0.429546D+01
   zx         0.862235D-01      0.127770D-01      0.142163D-01
   zy        -0.295616D-01     -0.438058D-02     -0.487405D-02
   zz         0.256569D+02      0.380197D+01      0.423026D+01
 Alpha(-w;w) w=  455.6nm:
                  (au)         (10**-24 esu)      (10**-40 SI)
   iso        0.273081D+02      0.404664D+01      0.450250D+01
   aniso      0.453078D+01      0.671393D+00      0.747025D+00
   xx         0.289792D+02      0.429428D+01      0.477803D+01
   yx        -0.216714D+01     -0.321136D+00     -0.357313D+00
   yy         0.265694D+02      0.393717D+01      0.438070D+01
   zx         0.188244D+00      0.278949D-01      0.310373D-01
   zy        -0.826161D-01     -0.122424D-01     -0.136215D-01
   zz         0.263757D+02      0.390847D+01      0.434876D+01

 First dipole hyperpolarizability, Beta (input orientation).
 ||, _|_  parallel and perpendicular components, (z) with respect to z axis,
 vector components x,y,z.  Values do not include the 1/n! factor of 1/2.
 (esu units = statvolt**-1 cm**4 , SI units = C**3 m**3 J**-2)
 Beta(0;0,0):
               (au)            (10**-30 esu)      (10**-50 SI)
   || (z)    -0.140264D+02     -0.121177D+00     -0.449738D-01
   _|_(z)    -0.467547D+01     -0.403924D-01     -0.149913D-01
   x         -0.776819D+02     -0.671111D+00     -0.249076D+00
   y          0.439499D+02      0.379693D+00      0.140919D+00
   z         -0.701321D+02     -0.605886D+00     -0.224869D+00
   ||         0.227020D+02      0.196128D+00      0.727910D-01
   xxx       -0.226221D+02     -0.195437D+00     -0.725345D-01
   xxy        0.145733D+02      0.125902D+00      0.467273D-01
   yxy       -0.756077D+01     -0.653192D-01     -0.242426D-01
   yyy        0.310172D+01      0.267964D-01      0.994524D-02
   xxz       -0.856683D+01     -0.740108D-01     -0.274684D-01
   yxz        0.673935D+01      0.582227D-01      0.216088D-01
   yyz       -0.130284D+01     -0.112555D-01     -0.417737D-02
   zxz        0.428887D+01      0.370525D-01      0.137517D-01
   zyz       -0.302508D+01     -0.261343D-01     -0.969950D-02
   zzz       -0.135077D+02     -0.116696D+00     -0.433105D-01
 Beta(-w;w,0) w=  650.9nm:
                  (au)         (10**-30 esu)      (10**-50 SI)
   || (z)    -0.171731D+02     -0.148362D+00     -0.550632D-01
   _|_(z)    -0.606607D+01     -0.524061D-01     -0.194500D-01
   x         -0.827119D+02     -0.714566D+00     -0.265204D+00
   y          0.465024D+02      0.401745D+00      0.149104D+00
   z         -0.858655D+02     -0.741811D+00     -0.275316D+00
   ||         0.255942D+02      0.221114D+00      0.820643D-01
   xxx       -0.257697D+02     -0.222630D+00     -0.826270D-01
   yxx        0.164876D+02      0.142440D+00      0.528653D-01
   yyx       -0.883216D+01     -0.763029D-01     -0.283191D-01
   zxx       -0.965983D+01     -0.834534D-01     -0.309729D-01
   zyx        0.749126D+01      0.647187D-01      0.240197D-01
   zzx        0.770428D+01      0.665590D-01      0.247027D-01
   xxy        0.166508D+02      0.143850D+00      0.533884D-01
   yxy       -0.850406D+01     -0.734685D-01     -0.272671D-01
   yyy        0.356317D+01      0.307830D-01      0.114248D-01
   zxy        0.744798D+01      0.643447D-01      0.238809D-01
   zyy       -0.174984D+01     -0.151173D-01     -0.561063D-02
   zzy       -0.512775D+01     -0.442998D-01     -0.164414D-01
   xxz       -0.105024D+02     -0.907328D-01     -0.336746D-01
   yxz        0.802115D+01      0.692965D-01      0.257187D-01
   yyz       -0.193234D+01     -0.166939D-01     -0.619579D-02
   zxz        0.636661D+01      0.550026D-01      0.204137D-01
   zyz       -0.434269D+01     -0.375175D-01     -0.139242D-01
   zzz       -0.168705D+02     -0.145748D+00     -0.540928D-01
 Beta(-w;w,0) w=  455.6nm:
                  (au)         (10**-30 esu)      (10**-50 SI)
   || (z)    -0.214197D+02     -0.185049D+00     -0.686793D-01
   _|_(z)    -0.804543D+01     -0.695062D-01     -0.257965D-01
   x         -0.852641D+02     -0.736616D+00     -0.273388D+00
   y          0.474504D+02      0.409934D+00      0.152143D+00
   z         -0.107098D+03     -0.925247D+00     -0.343396D+00
   ||         0.289770D+02      0.250338D+00      0.929106D-01
   xxx       -0.294777D+02     -0.254665D+00     -0.945162D-01
   yxx        0.188454D+02      0.162809D+00      0.604250D-01
   yyx       -0.104050D+02     -0.898911D-01     -0.333622D-01
   zxx       -0.108169D+02     -0.934497D-01     -0.346829D-01
   zyx        0.803477D+01      0.694141D-01      0.257624D-01
   zzx        0.135840D+02      0.117355D+00      0.435552D-01
   xxy        0.192340D+02      0.166167D+00      0.616713D-01
   yxy       -0.960289D+01     -0.829615D-01     -0.307904D-01
   yyy        0.396910D+01      0.342899D-01      0.127264D-01
   zxy        0.791034D+01      0.683392D-01      0.253634D-01
   zyy       -0.261502D+01     -0.225917D-01     -0.838469D-02
   zzy       -0.868495D+01     -0.750312D-01     -0.278471D-01
   xxz       -0.131258D+02     -0.113397D+00     -0.420861D-01
   yxz        0.956131D+01      0.826023D-01      0.306570D-01
   yyz       -0.302271D+01     -0.261139D-01     -0.969191D-02
   zxz        0.959791D+01      0.829185D-01      0.307744D-01
   zyz       -0.634836D+01     -0.548449D-01     -0.203551D-01
   zzz       -0.213620D+02     -0.184551D+00     -0.684944D-01
 Error rotating to dipole orientation, DetR=  -1.0000000000
 1|1|UNPC-X500|SP|RPBE1PBE|Aug-CC-pVTZ|C1H5N1|SOBEREVA|08-Feb-2015|0||#
 p PBE1PBE/aug-cc-pVTZ polar CPHF=RdFreq||test||0,1|C,0,-0.55391731,0.4
 3227932,0.14513431|H,0,-1.29461381,-0.13844703,0.71478821|H,0,-0.40071
 988,1.3781056,0.67504812|H,0,-0.99858078,0.66864399,-0.83680924|N,0,0.
 70741247,-0.31205725,0.11165308|H,0,0.5747971,-1.18908235,-0.38659422|
 H,0,1.39864521,0.20863272,-0.42322026||Version=IA32W-G09RevB.01|State=
 1-A'|HF=-95.7785891|RMSD=6.772e-009|Dipole=-0.1451685,0.0723962,-0.502
 5817|Polar=27.7439271,-1.9497126,25.5852974,0.007259,0.0116561,25.0438
 811|HyperPolar=-22.6220551,14.5733135,-7.560769,3.1017205,-8.5668327,6
 .7393491,-1.302838,4.2888719,-3.0250785,-13.507684|Quadrupole=-0.05202
 08,0.7050044,-0.6529836,0.608705,-1.4067126,0.7847036|PG=CS [SG(C1H1N1
 ),X(H4)]||@


 NOT WHAT WE DID SHALL BE THE TEST
 WHEN ACT AND WILL ARE DONE,
 BUT WHAT OUR LORD INFERS WE WOULD-
 HAD WE DIVINER BEEN.
           EMILY DICKINSON  POEMS NO. CLXXV
 Job cpu time:  0 days  0 hours  5 minutes 37.0 seconds.
 File lengths (MBytes):  RWF=     36 Int=      0 D2E=      0 Chk=      3 Scr=      1
 Normal termination of Gaussian 09 at Sun Feb 08 18:41:14 2015.
