 Generated by Multiwfn
GAUSSIAN             41 MOL ORBITALS    352 PRIMITIVES       22 NUCLEI
  O    1    (CENTRE  1)  -4.44831348  3.60557454  0.10406127  CHARGE =  8.0
  O    2    (CENTRE  2)  -6.54890453 -0.90196848  0.72147448  CHARGE =  8.0
  N    3    (CENTRE  3)   8.21398363  0.28948738  0.58346589  CHARGE =  7.0
  C    4    (CENTRE  4)   3.99297232 -0.19036337 -1.29566643  CHARGE =  6.0
  C    5    (CENTRE  5)   1.19307473 -0.43163615 -0.82332938  CHARGE =  6.0
  C    6    (CENTRE  6)   5.51491426  0.18191651  1.14127336  CHARGE =  6.0
  C    7    (CENTRE  7)  -0.33631093  1.72094137 -0.61523463  CHARGE =  6.0
  C    8    (CENTRE  8)   0.06008574 -2.78742925 -0.49862341  CHARGE =  6.0
  C    9    (CENTRE  9)  -2.90943572  1.55552222 -0.10011797  CHARGE =  6.0
  C   10    (CENTRE 10)  -2.51884995 -2.98032125  0.01938642  CHARGE =  6.0
  C   11    (CENTRE 11)  -4.02552111 -0.83613222  0.22661568  CHARGE =  6.0
  H   12    (CENTRE 12)   4.35865127  1.41012128 -2.56696645  CHARGE =  1.0
  H   13    (CENTRE 13)   4.71593435 -1.87748816 -2.25179226  CHARGE =  1.0
  H   14    (CENTRE 14)   4.76937567  1.85247973  2.14875628  CHARGE =  1.0
  H   15    (CENTRE 15)   5.17815190 -1.44123919  2.38464323  CHARGE =  1.0
  H   16    (CENTRE 16)   0.49952053  3.58579684 -0.87360555  CHARGE =  1.0
  H   17    (CENTRE 17)   1.18904410 -4.49543927 -0.65664420  CHARGE =  1.0
  H   18    (CENTRE 18)  -3.38130388 -4.83291617  0.25879205  CHARGE =  1.0
  H   19    (CENTRE 19)   9.21809527  0.39077673  2.21586234  CHARGE =  1.0
  H   20    (CENTRE 20)   8.61259295  1.89741378 -0.38957110  CHARGE =  1.0
  H   21    (CENTRE 21)  -3.45040019  5.10337717 -0.17537631  CHARGE =  1.0
  H   22    (CENTRE 22)  -7.05537941 -2.64313002  0.89153282  CHARGE =  1.0
CENTRE ASSIGNMENTS    1  1  1  1  1  1  1  1  1  1  1  1  1  1  1  1  1  1  1  1
CENTRE ASSIGNMENTS    1  1  1  1  1  1  1  1  2  2  2  2  2  2  2  2  2  2  2  2
CENTRE ASSIGNMENTS    2  2  2  2  2  2  2  2  2  2  2  2  2  2  2  2  3  3  3  3
CENTRE ASSIGNMENTS    3  3  3  3  3  3  3  3  3  3  3  3  3  3  3  3  3  3  3  3
CENTRE ASSIGNMENTS    3  3  3  3  4  4  4  4  4  4  4  4  4  4  4  4  4  4  4  4
CENTRE ASSIGNMENTS    4  4  4  4  4  4  4  4  4  4  4  4  5  5  5  5  5  5  5  5
CENTRE ASSIGNMENTS    5  5  5  5  5  5  5  5  5  5  5  5  5  5  5  5  5  5  5  5
CENTRE ASSIGNMENTS    6  6  6  6  6  6  6  6  6  6  6  6  6  6  6  6  6  6  6  6
CENTRE ASSIGNMENTS    6  6  6  6  6  6  6  6  7  7  7  7  7  7  7  7  7  7  7  7
CENTRE ASSIGNMENTS    7  7  7  7  7  7  7  7  7  7  7  7  7  7  7  7  8  8  8  8
CENTRE ASSIGNMENTS    8  8  8  8  8  8  8  8  8  8  8  8  8  8  8  8  8  8  8  8
CENTRE ASSIGNMENTS    8  8  8  8  9  9  9  9  9  9  9  9  9  9  9  9  9  9  9  9
CENTRE ASSIGNMENTS    9  9  9  9  9  9  9  9  9  9  9  9 10 10 10 10 10 10 10 10
CENTRE ASSIGNMENTS   10 10 10 10 10 10 10 10 10 10 10 10 10 10 10 10 10 10 10 10
CENTRE ASSIGNMENTS   11 11 11 11 11 11 11 11 11 11 11 11 11 11 11 11 11 11 11 11
CENTRE ASSIGNMENTS   11 11 11 11 11 11 11 11 12 12 12 12 13 13 13 13 14 14 14 14
CENTRE ASSIGNMENTS   15 15 15 15 16 16 16 16 17 17 17 17 18 18 18 18 19 19 19 19
CENTRE ASSIGNMENTS   20 20 20 20 21 21 21 21 22 22 22 22
TYPE ASSIGNMENTS      1  1  1  1  1  1  1  1  1  2  2  2  3  3  3  4  4  4  1  2
TYPE ASSIGNMENTS      3  4  5  6  7  8  9 10  1  1  1  1  1  1  1  1  1  2  2  2
TYPE ASSIGNMENTS      3  3  3  4  4  4  1  2  3  4  5  6  7  8  9 10  1  1  1  1
TYPE ASSIGNMENTS      1  1  1  1  1  2  2  2  3  3  3  4  4  4  1  2  3  4  5  6
TYPE ASSIGNMENTS      7  8  9 10  1  1  1  1  1  1  1  1  1  2  2  2  3  3  3  4
TYPE ASSIGNMENTS      4  4  1  2  3  4  5  6  7  8  9 10  1  1  1  1  1  1  1  1
TYPE ASSIGNMENTS      1  2  2  2  3  3  3  4  4  4  1  2  3  4  5  6  7  8  9 10
TYPE ASSIGNMENTS      1  1  1  1  1  1  1  1  1  2  2  2  3  3  3  4  4  4  1  2
TYPE ASSIGNMENTS      3  4  5  6  7  8  9 10  1  1  1  1  1  1  1  1  1  2  2  2
TYPE ASSIGNMENTS      3  3  3  4  4  4  1  2  3  4  5  6  7  8  9 10  1  1  1  1
TYPE ASSIGNMENTS      1  1  1  1  1  2  2  2  3  3  3  4  4  4  1  2  3  4  5  6
TYPE ASSIGNMENTS      7  8  9 10  1  1  1  1  1  1  1  1  1  2  2  2  3  3  3  4
TYPE ASSIGNMENTS      4  4  1  2  3  4  5  6  7  8  9 10  1  1  1  1  1  1  1  1
TYPE ASSIGNMENTS      1  2  2  2  3  3  3  4  4  4  1  2  3  4  5  6  7  8  9 10
TYPE ASSIGNMENTS      1  1  1  1  1  1  1  1  1  2  2  2  3  3  3  4  4  4  1  2
TYPE ASSIGNMENTS      3  4  5  6  7  8  9 10  1  1  1  1  1  1  1  1  1  1  1  1
TYPE ASSIGNMENTS      1  1  1  1  1  1  1  1  1  1  1  1  1  1  1  1  1  1  1  1
TYPE ASSIGNMENTS      1  1  1  1  1  1  1  1  1  1  1  1
EXPONENTS  0.5484672D+04 0.8252349D+03 0.1880470D+03 0.5296450D+02 0.1689757D+02
EXPONENTS  0.5799635D+01 0.1553962D+02 0.3599934D+01 0.1013762D+01 0.1553962D+02
EXPONENTS  0.3599934D+01 0.1013762D+01 0.1553962D+02 0.3599934D+01 0.1013762D+01
EXPONENTS  0.1553962D+02 0.3599934D+01 0.1013762D+01 0.2700058D+00 0.2700058D+00
EXPONENTS  0.2700058D+00 0.2700058D+00 0.8000000D+00 0.8000000D+00 0.8000000D+00
EXPONENTS  0.8000000D+00 0.8000000D+00 0.8000000D+00 0.5484672D+04 0.8252349D+03
EXPONENTS  0.1880470D+03 0.5296450D+02 0.1689757D+02 0.5799635D+01 0.1553962D+02
EXPONENTS  0.3599934D+01 0.1013762D+01 0.1553962D+02 0.3599934D+01 0.1013762D+01
EXPONENTS  0.1553962D+02 0.3599934D+01 0.1013762D+01 0.1553962D+02 0.3599934D+01
EXPONENTS  0.1013762D+01 0.2700058D+00 0.2700058D+00 0.2700058D+00 0.2700058D+00
EXPONENTS  0.8000000D+00 0.8000000D+00 0.8000000D+00 0.8000000D+00 0.8000000D+00
EXPONENTS  0.8000000D+00 0.4173511D+04 0.6274579D+03 0.1429021D+03 0.4023433D+02
EXPONENTS  0.1282021D+02 0.4390437D+01 0.1162636D+02 0.2716280D+01 0.7722184D+00
EXPONENTS  0.1162636D+02 0.2716280D+01 0.7722184D+00 0.1162636D+02 0.2716280D+01
EXPONENTS  0.7722184D+00 0.1162636D+02 0.2716280D+01 0.7722184D+00 0.2120315D+00
EXPONENTS  0.2120315D+00 0.2120315D+00 0.2120315D+00 0.8000000D+00 0.8000000D+00
EXPONENTS  0.8000000D+00 0.8000000D+00 0.8000000D+00 0.8000000D+00 0.3047525D+04
EXPONENTS  0.4573695D+03 0.1039487D+03 0.2921016D+02 0.9286663D+01 0.3163927D+01
EXPONENTS  0.7868272D+01 0.1881289D+01 0.5442493D+00 0.7868272D+01 0.1881289D+01
EXPONENTS  0.5442493D+00 0.7868272D+01 0.1881289D+01 0.5442493D+00 0.7868272D+01
EXPONENTS  0.1881289D+01 0.5442493D+00 0.1687145D+00 0.1687145D+00 0.1687145D+00
EXPONENTS  0.1687145D+00 0.8000000D+00 0.8000000D+00 0.8000000D+00 0.8000000D+00
EXPONENTS  0.8000000D+00 0.8000000D+00 0.3047525D+04 0.4573695D+03 0.1039487D+03
EXPONENTS  0.2921016D+02 0.9286663D+01 0.3163927D+01 0.7868272D+01 0.1881289D+01
EXPONENTS  0.5442493D+00 0.7868272D+01 0.1881289D+01 0.5442493D+00 0.7868272D+01
EXPONENTS  0.1881289D+01 0.5442493D+00 0.7868272D+01 0.1881289D+01 0.5442493D+00
EXPONENTS  0.1687145D+00 0.1687145D+00 0.1687145D+00 0.1687145D+00 0.8000000D+00
EXPONENTS  0.8000000D+00 0.8000000D+00 0.8000000D+00 0.8000000D+00 0.8000000D+00
EXPONENTS  0.3047525D+04 0.4573695D+03 0.1039487D+03 0.2921016D+02 0.9286663D+01
EXPONENTS  0.3163927D+01 0.7868272D+01 0.1881289D+01 0.5442493D+00 0.7868272D+01
EXPONENTS  0.1881289D+01 0.5442493D+00 0.7868272D+01 0.1881289D+01 0.5442493D+00
EXPONENTS  0.7868272D+01 0.1881289D+01 0.5442493D+00 0.1687145D+00 0.1687145D+00
EXPONENTS  0.1687145D+00 0.1687145D+00 0.8000000D+00 0.8000000D+00 0.8000000D+00
EXPONENTS  0.8000000D+00 0.8000000D+00 0.8000000D+00 0.3047525D+04 0.4573695D+03
EXPONENTS  0.1039487D+03 0.2921016D+02 0.9286663D+01 0.3163927D+01 0.7868272D+01
EXPONENTS  0.1881289D+01 0.5442493D+00 0.7868272D+01 0.1881289D+01 0.5442493D+00
EXPONENTS  0.7868272D+01 0.1881289D+01 0.5442493D+00 0.7868272D+01 0.1881289D+01
EXPONENTS  0.5442493D+00 0.1687145D+00 0.1687145D+00 0.1687145D+00 0.1687145D+00
EXPONENTS  0.8000000D+00 0.8000000D+00 0.8000000D+00 0.8000000D+00 0.8000000D+00
EXPONENTS  0.8000000D+00 0.3047525D+04 0.4573695D+03 0.1039487D+03 0.2921016D+02
EXPONENTS  0.9286663D+01 0.3163927D+01 0.7868272D+01 0.1881289D+01 0.5442493D+00
EXPONENTS  0.7868272D+01 0.1881289D+01 0.5442493D+00 0.7868272D+01 0.1881289D+01
EXPONENTS  0.5442493D+00 0.7868272D+01 0.1881289D+01 0.5442493D+00 0.1687145D+00
EXPONENTS  0.1687145D+00 0.1687145D+00 0.1687145D+00 0.8000000D+00 0.8000000D+00
EXPONENTS  0.8000000D+00 0.8000000D+00 0.8000000D+00 0.8000000D+00 0.3047525D+04
EXPONENTS  0.4573695D+03 0.1039487D+03 0.2921016D+02 0.9286663D+01 0.3163927D+01
EXPONENTS  0.7868272D+01 0.1881289D+01 0.5442493D+00 0.7868272D+01 0.1881289D+01
EXPONENTS  0.5442493D+00 0.7868272D+01 0.1881289D+01 0.5442493D+00 0.7868272D+01
EXPONENTS  0.1881289D+01 0.5442493D+00 0.1687145D+00 0.1687145D+00 0.1687145D+00
EXPONENTS  0.1687145D+00 0.8000000D+00 0.8000000D+00 0.8000000D+00 0.8000000D+00
EXPONENTS  0.8000000D+00 0.8000000D+00 0.3047525D+04 0.4573695D+03 0.1039487D+03
EXPONENTS  0.2921016D+02 0.9286663D+01 0.3163927D+01 0.7868272D+01 0.1881289D+01
EXPONENTS  0.5442493D+00 0.7868272D+01 0.1881289D+01 0.5442493D+00 0.7868272D+01
EXPONENTS  0.1881289D+01 0.5442493D+00 0.7868272D+01 0.1881289D+01 0.5442493D+00
EXPONENTS  0.1687145D+00 0.1687145D+00 0.1687145D+00 0.1687145D+00 0.8000000D+00
EXPONENTS  0.8000000D+00 0.8000000D+00 0.8000000D+00 0.8000000D+00 0.8000000D+00
EXPONENTS  0.3047525D+04 0.4573695D+03 0.1039487D+03 0.2921016D+02 0.9286663D+01
EXPONENTS  0.3163927D+01 0.7868272D+01 0.1881289D+01 0.5442493D+00 0.7868272D+01
EXPONENTS  0.1881289D+01 0.5442493D+00 0.7868272D+01 0.1881289D+01 0.5442493D+00
EXPONENTS  0.7868272D+01 0.1881289D+01 0.5442493D+00 0.1687145D+00 0.1687145D+00
EXPONENTS  0.1687145D+00 0.1687145D+00 0.8000000D+00 0.8000000D+00 0.8000000D+00
EXPONENTS  0.8000000D+00 0.8000000D+00 0.8000000D+00 0.1873114D+02 0.2825394D+01
EXPONENTS  0.6401217D+00 0.1612778D+00 0.1873114D+02 0.2825394D+01 0.6401217D+00
EXPONENTS  0.1612778D+00 0.1873114D+02 0.2825394D+01 0.6401217D+00 0.1612778D+00
EXPONENTS  0.1873114D+02 0.2825394D+01 0.6401217D+00 0.1612778D+00 0.1873114D+02
EXPONENTS  0.2825394D+01 0.6401217D+00 0.1612778D+00 0.1873114D+02 0.2825394D+01
EXPONENTS  0.6401217D+00 0.1612778D+00 0.1873114D+02 0.2825394D+01 0.6401217D+00
EXPONENTS  0.1612778D+00 0.1873114D+02 0.2825394D+01 0.6401217D+00 0.1612778D+00
EXPONENTS  0.1873114D+02 0.2825394D+01 0.6401217D+00 0.1612778D+00 0.1873114D+02
EXPONENTS  0.2825394D+01 0.6401217D+00 0.1612778D+00 0.1873114D+02 0.2825394D+01
EXPONENTS  0.6401217D+00 0.1612778D+00
MO    1     MO 0.0        OCC NO =    2.0000000  ORB. ENERGY =  -19.173002
  0.82561783D+00  0.15195775D+01  0.24589633D+01  0.32323761D+01  0.27723902D+01
  0.94792729D+00 -0.15793227D-01 -0.70469071D-02  0.20809611D-01  0.32372483D-02
  0.24941253D-02  0.10950553D-02  0.44911705D-03  0.34602047D-03  0.15192163D-03
 -0.67591404D-03 -0.52075533D-03 -0.22863964D-03  0.39140003D-02  0.16087370D-03
 -0.36308229D-03 -0.13394541D-04 -0.92804149D-02 -0.91679938D-02 -0.92180447D-02
 -0.15622994D-03  0.34471757D-04  0.25880486D-04 -0.32122887D-02 -0.59123260D-02
 -0.95672595D-02 -0.12576430D-01 -0.10786731D-01 -0.36881666D-02 -0.11937809D-03
 -0.53266270D-04  0.15729601D-03  0.10827100D-03  0.83416972D-04  0.36624544D-04
  0.26386742D-03  0.20329562D-03  0.89257728D-04 -0.32783603D-04 -0.25257999D-04
 -0.11089622D-04 -0.50267843D-03 -0.15189013D-03 -0.68117725D-04  0.32451008D-04
  0.22271932D-03  0.30562212D-03  0.29719713D-03 -0.22693811D-04  0.31107983D-04
  0.46299075D-05  0.21584316D-05  0.39749322D-05  0.64224075D-05  0.84055508D-05
  0.72001076D-05  0.24769204D-05 -0.56819257D-05 -0.28088647D-05  0.74096052D-05
 -0.42633064D-05 -0.33190522D-05 -0.15760034D-05  0.12508711D-05  0.97382310D-06
  0.46240566D-06 -0.59914688D-05 -0.46644541D-05 -0.22148478D-05 -0.15245534D-04
  0.67786729D-05 -0.47890632D-05  0.36991207D-05  0.26577788D-05  0.76865038D-05
  0.11563258D-04  0.65181211D-05 -0.91321188D-06 -0.17239480D-05  0.51676985D-05
  0.95333946D-05  0.15389855D-04  0.20033018D-04  0.17094211D-04  0.59022202D-05
 -0.19018414D-04 -0.87655697D-05  0.24579572D-04 -0.87071727D-05 -0.66761077D-05
 -0.33318457D-05  0.13293213D-04  0.10192393D-04  0.50867182D-05  0.23143497D-05
  0.17744966D-05  0.88559815D-06 -0.20757131D-04  0.15086516D-04 -0.41536417D-04
 -0.62244839D-05 -0.11310119D-04  0.27270137D-04  0.13008616D-04  0.32278197D-04
  0.84185853D-05  0.79223473D-05 -0.67232910D-05 -0.12403159D-04 -0.20022544D-04
 -0.26063404D-04 -0.22239949D-04 -0.76789201D-05  0.38488927D-04  0.17739511D-04
 -0.49743441D-04 -0.58724462D-04 -0.45026193D-04 -0.22471226D-04  0.45180701D-04
  0.34641696D-04  0.17288634D-04  0.97216013D-05  0.74539073D-05  0.37200222D-05
  0.41724463D-03 -0.13628983D-03  0.12652648D-03  0.23386712D-04  0.22614384D-04
  0.47587626D-04 -0.14542557D-04 -0.75037419D-04 -0.79847515D-05  0.10631912D-04
 -0.37852517D-06 -0.69830503D-06 -0.11272808D-05 -0.14673847D-05 -0.12521220D-05
 -0.43232764D-06  0.27274523D-05  0.12570803D-05 -0.35249843D-05 -0.46962988D-05
 -0.36008241D-05 -0.17970636D-05 -0.12379823D-04 -0.94920629D-05 -0.47372047D-05
 -0.20605436D-05 -0.15798941D-05 -0.78847788D-06  0.17192957D-04 -0.10527571D-05
  0.17160077D-04 -0.64937074D-05  0.64734111D-05 -0.10579776D-05  0.23169482D-06
 -0.43668845D-05  0.37319098D-05 -0.10286374D-04  0.15878215D-04  0.29292206D-04
  0.47286703D-04  0.61553238D-04  0.52523489D-04  0.18135099D-04 -0.98453034D-04
 -0.45376913D-04  0.12724160D-03  0.89254963D-04  0.68435045D-04  0.34153884D-04
 -0.40016835D-04 -0.30682371D-04 -0.15312653D-04 -0.17379468D-04 -0.13325474D-04
 -0.66503453D-05 -0.72506114D-03  0.73717281D-04  0.33531717D-03 -0.29603703D-04
 -0.85351321D-04 -0.65851729D-04  0.58486966D-04  0.60898283D-04  0.56904292D-04
 -0.28936058D-06  0.58107142D-05  0.10719633D-04  0.17304812D-04  0.22525723D-04
  0.19221240D-04  0.66366324D-05 -0.21932430D-04 -0.10108637D-04  0.28345673D-04
 -0.20621851D-04 -0.15811527D-04 -0.78910602D-05  0.19026594D-04  0.14588386D-04
  0.72806269D-05  0.54407399D-05  0.41716142D-05  0.20819279D-05 -0.14689519D-03
  0.92125254D-04 -0.61297232D-04 -0.16987526D-04 -0.77172973D-05  0.56377202D-05
  0.25801571D-04 -0.27786991D-04  0.14855849D-04  0.63892028D-05 -0.26437291D-04
 -0.48771639D-04 -0.78732548D-04 -0.10248638D-03 -0.87451817D-04 -0.30195011D-04
 -0.68258725D-04 -0.31460384D-04  0.88218200D-04 -0.38048949D-03 -0.29173521D-03
 -0.14559631D-03  0.40378302D-03  0.30959521D-03  0.15450971D-03  0.56776837D-04
  0.43532878D-04  0.21725957D-04 -0.68303029D-04  0.59195698D-03 -0.51428718D-03
 -0.92950684D-04 -0.22551488D-04 -0.12570934D-03 -0.98293152D-04  0.53659628D-06
 -0.32357269D-04  0.26114063D-05  0.40647911D-05  0.74987459D-05  0.12105301D-04
  0.15757505D-04  0.13445908D-04  0.46425488D-05 -0.71113038D-05 -0.32775934D-05
  0.91907141D-05 -0.22759500D-04 -0.17450541D-04 -0.87090431D-05  0.82496145D-04
  0.63252811D-04  0.31567586D-04  0.86961355D-06  0.66676451D-06  0.33276222D-06
  0.31350100D-03  0.41527924D-04  0.87273913D-04 -0.11160890D-04  0.35181572D-04
  0.55838701D-05  0.33814621D-04 -0.53026271D-05  0.37754774D-06  0.42488336D-05
  0.12455705D-04  0.22978343D-04  0.37094170D-04  0.48285588D-04  0.41202180D-04
  0.14226123D-04 -0.63783099D-04 -0.29397572D-04  0.82433860D-04 -0.61012647D-04
 -0.46780628D-04 -0.23346812D-04 -0.58685997D-05 -0.44996700D-05 -0.22456507D-05
  0.12204674D-04  0.93577699D-05  0.46701830D-05 -0.15323820D-03 -0.36150267D-03
  0.92224456D-04  0.66776463D-04  0.38362286D-04 -0.29619454D-04  0.32833611D-04
 -0.35850485D-04 -0.16924872D-06  0.13312513D-04  0.73444478D-05  0.12457574D-04
  0.14182507D-04  0.10665268D-04 -0.29846705D-05 -0.50625661D-05 -0.57635526D-05
 -0.14623371D-04 -0.19040638D-05 -0.32296526D-05 -0.36768453D-05 -0.90038248D-05
  0.15178767D-05  0.25746062D-05  0.29310981D-05  0.85662510D-05 -0.20448761D-04
 -0.34684969D-04 -0.39487612D-04 -0.69345032D-04 -0.69175312D-05 -0.11733442D-04
 -0.13358109D-04 -0.33399191D-04  0.43882521D-06  0.74433061D-06  0.84739409D-06
  0.14471463D-04 -0.34835034D-06 -0.59086811D-06 -0.67268246D-06 -0.97856344D-06
  0.14402188D-05  0.24428837D-05  0.27811367D-05  0.19344984D-05  0.87482434D-04
  0.14838677D-03  0.16893309D-03 -0.18268546D-03 -0.82098197D-05 -0.13925408D-04
 -0.15853585D-04 -0.22167230D-04
MO    2     MO 0.0        OCC NO =    2.0000000  ORB. ENERGY =  -19.172206
  0.33322186D-02  0.61330610D-02  0.99244505D-02  0.13045968D-01  0.11189451D-01
  0.38258633D-02 -0.24203343D-03 -0.10799484D-03  0.31891022D-03 -0.11096839D-03
 -0.85495159D-04 -0.37536980D-04 -0.25194302D-03 -0.19410851D-03 -0.85224093D-04
  0.33556176D-04  0.25853225D-04  0.11350958D-04 -0.46540732D-03 -0.37357424D-04
  0.16288133D-03 -0.54835444D-06  0.21021636D-03  0.16458902D-03  0.22412296D-03
  0.74981791D-04  0.13869525D-05 -0.96140807D-05  0.82562051D+00  0.15195825D+01
  0.24589713D+01  0.32323866D+01  0.27723992D+01  0.94793037D+00 -0.15801058D-01
 -0.70504011D-02  0.20819929D-01  0.17014520D-02  0.13108771D-02  0.57554564D-03
 -0.28607508D-02 -0.22040543D-02 -0.96769855D-03 -0.21539486D-03 -0.16595013D-03
 -0.72861045D-04  0.38910261D-02  0.37127276D-03  0.99693742D-04 -0.76320242D-04
 -0.91314710D-02 -0.93049831D-02 -0.92008102D-02  0.76012343D-04 -0.31256620D-04
 -0.61808393D-05  0.97213790D-06  0.17902732D-05  0.28925937D-05  0.37857833D-05
  0.32428627D-05  0.11155823D-05 -0.23808800D-05 -0.11769900D-05  0.31048243D-05
 -0.44555326D-05 -0.34687033D-05 -0.16470630D-05 -0.54458776D-06 -0.42397027D-06
 -0.20131608D-06 -0.48136438D-05 -0.37474986D-05 -0.17794449D-05 -0.55835175D-05
  0.36951254D-05 -0.15100814D-05  0.32893125D-05  0.22188744D-05  0.33082157D-05
  0.54262948D-05  0.22483800D-05 -0.19305685D-05  0.67200353D-07  0.11168256D-05
  0.20603252D-05  0.33260037D-05  0.43294686D-05  0.36943434D-05  0.12755680D-05
 -0.69091941D-05 -0.31844412D-05  0.89295056D-05  0.19850507D-04  0.15220110D-04
  0.75959015D-05  0.13773287D-04  0.10560483D-04  0.52704212D-05 -0.89348176D-05
 -0.68506514D-05 -0.34189552D-05 -0.84789713D-04  0.28010046D-04 -0.10395810D-04
 -0.41112581D-06 -0.11418183D-04  0.36227149D-05 -0.74621465D-06  0.34045789D-05
  0.13452281D-05  0.47778112D-05  0.69616210D-05  0.12842831D-04  0.20732312D-04
  0.26987310D-04  0.23028321D-04  0.79511257D-05 -0.29482217D-04 -0.13588327D-04
  0.38103087D-04 -0.42943592D-04 -0.32926422D-04 -0.16432592D-04  0.40565224D-05
  0.31102840D-05  0.15522497D-05  0.93333594D-05  0.71562280D-05  0.35714593D-05
 -0.21235233D-03  0.15907817D-03  0.24243333D-04 -0.32786122D-04  0.17137583D-04
 -0.35984190D-04  0.30351039D-04 -0.27867954D-06  0.62462775D-05  0.58462508D-05
  0.15679069D-06  0.28924820D-06  0.46693628D-06  0.60781230D-06  0.51864734D-06
  0.17907646D-06 -0.28597609D-06 -0.13180612D-06  0.36959812D-06  0.22111471D-05
  0.16953674D-05  0.84610713D-06 -0.47301352D-05 -0.36267676D-05 -0.18100112D-05
 -0.25469144D-05 -0.19528124D-05 -0.97459027D-06  0.30164507D-05 -0.42386726D-06
  0.67787525D-05 -0.24026195D-05 -0.10667063D-05  0.32013487D-06  0.35494826D-05
 -0.46154099D-05  0.17028592D-05 -0.32895549D-05  0.32693540D-05  0.60313197D-05
  0.97364202D-05  0.12673926D-04  0.10814684D-04  0.37340505D-05 -0.39426608D-05
 -0.18171688D-05  0.50955309D-05 -0.68527642D-04 -0.52542649D-04 -0.26222465D-04
 -0.36524832D-04 -0.28004925D-04 -0.13976420D-04  0.14385000D-04  0.11029505D-04
  0.55044962D-05  0.32691008D-03 -0.68147346D-04 -0.97597483D-04  0.18471399D-04
  0.18676494D-04  0.24195215D-04  0.29785774D-04 -0.28281253D-04  0.58764352D-05
  0.60748863D-05 -0.60061768D-05 -0.11080223D-04 -0.17886916D-04 -0.23283450D-04
 -0.19867810D-04 -0.68598774D-05  0.33798412D-04  0.15577657D-04 -0.43681376D-04
 -0.91935783D-04 -0.70490527D-04 -0.35179713D-04  0.28613411D-05  0.21938948D-05
  0.10949073D-05  0.18387499D-04  0.14098368D-04  0.70360736D-05  0.43362728D-03
 -0.13204666D-03  0.10996442D-03  0.21700745D-04  0.57502090D-04  0.20380546D-05
 -0.83782868D-05  0.42139152D-04 -0.29441351D-04 -0.97241638D-05  0.12245845D-04
  0.22591193D-04  0.36469190D-04  0.47472049D-04  0.40507986D-04  0.13986434D-04
 -0.64528394D-04 -0.29741078D-04  0.83397086D-04 -0.41002228D-04 -0.31437908D-04
 -0.15689719D-04  0.53471527D-04  0.40998576D-04  0.20461163D-04  0.61580842D-05
  0.47216284D-05  0.23564235D-05 -0.17067368D-03 -0.30865889D-03  0.21510353D-03
  0.50241975D-04  0.12798313D-04 -0.52066874D-05  0.30837371D-04 -0.69886582D-04
  0.10538169D-04  0.16946295D-04  0.14065767D-04  0.25948593D-04  0.41889074D-04
  0.54527128D-04  0.46528097D-04  0.16065034D-04 -0.88770825D-04 -0.40914392D-04
  0.11472823D-03  0.94468788D-04  0.72432675D-04  0.36148981D-04 -0.51440432D-04
 -0.39441261D-04 -0.19683953D-04 -0.15793935D-04 -0.12109788D-04 -0.60436327D-05
 -0.66538335D-03 -0.17862789D-03 -0.28349949D-03  0.46342988D-04 -0.88737335D-04
 -0.48977748D-04  0.51384263D-04  0.13391449D-04  0.57382087D-04  0.58211245D-05
 -0.24785654D-04 -0.45724692D-04 -0.73813830D-04 -0.96083675D-04 -0.81988374D-04
 -0.28308615D-04 -0.74636673D-04 -0.34399974D-04  0.96461118D-04 -0.54318398D-03
 -0.41647902D-03 -0.20785222D-03  0.52979657D-04  0.40621441D-04  0.20272946D-04
  0.10351708D-03  0.79370332D-04  0.39611358D-04 -0.79075392D-04  0.74656187D-03
 -0.15668916D-03 -0.13917981D-03 -0.79777702D-04 -0.64939743D-04 -0.94144150D-04
 -0.96160205D-04 -0.25753670D-05  0.16973884D-04  0.38412567D-05  0.65154984D-05
  0.74176647D-05  0.74569847D-05 -0.10989563D-05 -0.18640379D-05 -0.21221412D-05
  0.63503651D-06 -0.91621690D-06 -0.15540773D-05 -0.17692621D-05 -0.28173463D-05
  0.29380559D-06  0.49834989D-06  0.56735373D-06  0.42592564D-05  0.21381818D-05
  0.36267611D-05  0.41289393D-05  0.23872610D-04  0.38241156D-05  0.64864238D-05
  0.73845642D-05  0.31341371D-04 -0.20917186D-04 -0.35479506D-04 -0.40392164D-04
 -0.77962215D-04 -0.60112840D-06 -0.10196275D-05 -0.11608099D-05 -0.11263372D-05
  0.10202855D-05  0.17305973D-05  0.19702238D-05 -0.10657321D-06 -0.82626023D-05
 -0.14014937D-04 -0.15955511D-04 -0.24085117D-04  0.87015940D-04  0.14759550D-03
  0.16803226D-03 -0.18124791D-03
MO    3     MO 0.0        OCC NO =    2.0000000  ORB. ENERGY =  -14.309432
  0.97655486D-06  0.17973823D-05  0.29085038D-05  0.38233096D-05  0.32792304D-05
  0.11212246D-05 -0.33012056D-05 -0.14729915D-05  0.43497636D-05  0.12080342D-05
  0.93072521D-06  0.40863850D-06 -0.30828243D-06 -0.23751500D-06 -0.10428188D-06
 -0.42206406D-06 -0.32517760D-06 -0.14277048D-06 -0.80559929D-05 -0.25550119D-05
  0.14740527D-05  0.38637755D-06  0.29807602D-05  0.29621373D-05  0.40093166D-05
  0.23797314D-05  0.36480151D-06 -0.18184037D-06  0.68207287D-06  0.12553782D-05
  0.20314389D-05  0.26703832D-05  0.22903722D-05  0.78311715D-06 -0.23112303D-05
 -0.10312665D-05  0.30453436D-05  0.43390319D-06  0.33429902D-06  0.14677527D-06
 -0.39719157D-07 -0.30601469D-07 -0.13435693D-07 -0.34088564D-06 -0.26263401D-06
 -0.11531048D-06 -0.63374534D-05 -0.18240537D-05 -0.45583356D-07  0.51183757D-06
  0.14637498D-05  0.29607928D-05  0.24679093D-05 -0.47666511D-06  0.66398284D-06
 -0.50288548D-08  0.67404399D+00  0.12413083D+01  0.20056161D+01  0.26249203D+01
  0.22484795D+01  0.77350299D+00 -0.17893171D-01 -0.88455043D-02  0.23333873D-01
 -0.53375234D-03 -0.41553472D-03 -0.19731058D-03  0.20926792D-02  0.16291842D-02
  0.77359426D-03  0.13559066D-02  0.10555950D-02  0.50123383D-03  0.81225172D-03
  0.23449433D-04 -0.80405652D-04 -0.65228991D-04 -0.92065808D-02 -0.91273265D-02
 -0.91296321D-02  0.57596924D-04  0.67274255D-04 -0.31350648D-04 -0.12868057D-06
 -0.23739052D-06 -0.38322191D-06 -0.49884106D-06 -0.42566198D-06 -0.14697085D-06
 -0.21236415D-04 -0.97878441D-05  0.27446136D-04  0.49708050D-05  0.38112980D-05
  0.19021048D-05  0.18718242D-04  0.14351960D-04  0.71626341D-05 -0.46728993D-05
 -0.35828828D-05 -0.17881096D-05  0.31589413D-04 -0.56422503D-04 -0.29207054D-04
 -0.68618317D-05 -0.51106536D-04 -0.21559612D-04 -0.17556939D-04 -0.14418140D-04
 -0.62682223D-04 -0.19717645D-04  0.22875589D-05  0.42200994D-05  0.68125490D-05
  0.88679146D-05  0.75670076D-05  0.26127059D-05 -0.82872366D-05 -0.38195798D-05
  0.10710500D-04  0.10043953D-04  0.77010661D-05  0.38433717D-05  0.82048503D-05
  0.62909588D-05  0.31396293D-05 -0.11089342D-04 -0.85026040D-05 -0.42433953D-05
 -0.53137515D-04 -0.42091143D-04 -0.61169809D-05  0.13087774D-04 -0.56133246D-07
  0.67246515D-05  0.89168011D-05  0.12717098D-04  0.94463285D-07 -0.34697199D-05
 -0.51772963D-05 -0.95511008D-05 -0.15418438D-04 -0.20070225D-04 -0.17125960D-04
 -0.59131823D-05 -0.34901165D-04 -0.16085915D-04  0.45106584D-04  0.33825424D-03
  0.25935189D-03  0.12943477D-03 -0.26108000D-04 -0.20017959D-04 -0.99903644D-05
 -0.89654418D-04 -0.68741321D-04 -0.34306737D-04  0.23857332D-04 -0.18155462D-04
  0.38028473D-04  0.18921366D-05  0.92861403D-04 -0.51251856D-04 -0.13673575D-04
 -0.94526603D-05 -0.59946399D-04  0.22296378D-04  0.25765848D-06  0.47532958D-06
  0.76732932D-06  0.99883478D-06  0.85230753D-06  0.29428131D-06 -0.58840974D-06
 -0.27119751D-06  0.76046614D-06  0.62277026D-06  0.47750074D-06  0.23830633D-06
 -0.14941914D-05 -0.11456512D-05 -0.57176024D-06  0.67386569D-06  0.51667747D-06
  0.25785827D-06 -0.95662633D-05  0.12702948D-04  0.60209494D-05 -0.41766301D-05
  0.39829196D-05 -0.17932576D-05  0.17466159D-05 -0.43866257D-05 -0.90583419D-06
  0.52195049D-05  0.78703286D-06  0.14519220D-05  0.23438522D-05  0.30509992D-05
  0.26034231D-05  0.89889944D-06 -0.35051274D-05 -0.16155100D-05  0.45300587D-05
 -0.12908896D-05 -0.98977228D-06 -0.49396574D-06 -0.56462929D-05 -0.43292193D-05
 -0.21605838D-05 -0.11699794D-05 -0.89706602D-06 -0.44769881D-06 -0.19746421D-04
  0.80664927D-05 -0.47840044D-05 -0.22608212D-05 -0.10919385D-05 -0.31792856D-05
  0.46861380D-05  0.27382524D-05  0.12680246D-05 -0.37416003D-05  0.30446495D-06
  0.56167838D-06  0.90672306D-06  0.11802840D-05  0.10071385D-05  0.34774072D-06
 -0.63159170D-06 -0.29110004D-06  0.81627490D-06  0.16919781D-05  0.12973015D-05
  0.64744435D-06 -0.18463469D-05 -0.14156617D-05 -0.70651439D-06  0.10790393D-07
  0.82733891D-08  0.41290010D-08  0.13229758D-04  0.38482315D-05  0.36093766D-05
 -0.55671649D-06  0.12433763D-05  0.19037864D-05  0.14643421D-05 -0.24987186D-05
  0.99115561D-06  0.72757578D-06  0.18491062D-07  0.34112399D-07  0.55067989D-07
  0.71682159D-07  0.61166516D-07  0.21119328D-07  0.40785051D-07  0.18797793D-07
 -0.52710972D-07  0.31241637D-05  0.23954106D-05  0.11954778D-05  0.18054659D-05
  0.13843168D-05  0.69087108D-06  0.81299903D-07  0.62335609D-07  0.31109838D-07
  0.11649016D-04  0.36072879D-05  0.30528081D-06 -0.70653629D-06  0.11461521D-05
 -0.57874986D-06  0.62812993D-06 -0.46355758D-06 -0.10285617D-06 -0.16792766D-06
  0.33890386D-06  0.62521144D-06  0.10092851D-05  0.13137893D-05  0.11210588D-05
  0.38707467D-06 -0.84960535D-06 -0.39158233D-06  0.10980377D-05  0.20299773D-05
  0.15564578D-05  0.77678153D-06  0.51690575D-06  0.39633054D-06  0.19779672D-06
  0.74374884D-07  0.57025943D-07  0.28459942D-07  0.88309672D-06 -0.39001083D-05
  0.56527591D-06  0.46479406D-06  0.24457724D-05  0.26290778D-06  0.15409333D-05
  0.46371436D-06 -0.37802705D-06 -0.22707694D-06  0.50492431D-05  0.85644720D-05
  0.97503486D-05  0.12078107D-04  0.88993357D-05  0.15094958D-04  0.17185076D-04
 -0.29510281D-04 -0.14171555D-04 -0.24037639D-04 -0.27366003D-04 -0.22875585D-04
  0.19544612D-06  0.33151361D-06  0.37741653D-06 -0.25306772D-05 -0.85645521D-06
 -0.14527101D-05 -0.16538591D-05 -0.51827695D-05 -0.13372610D-05 -0.22682477D-05
 -0.25823198D-05  0.40279170D-06 -0.15823606D-06 -0.26839831D-06 -0.30556199D-06
 -0.72971142D-06  0.61492082D-04  0.10430221D-03  0.11874438D-03 -0.57746849D-04
  0.55238656D-04  0.93695216D-04  0.10666869D-03 -0.66334177D-04  0.20849676D-06
  0.35364997D-06  0.40261799D-06  0.28533849D-06  0.87106237D-07  0.14774866D-06
  0.16820663D-06  0.13714074D-06
MO    4     MO 0.0        OCC NO =    2.0000000  ORB. ENERGY =  -10.242067
  0.11952534D-03  0.21999042D-03  0.35598603D-03  0.46795360D-03  0.40136108D-03
  0.13723217D-03 -0.68186356D-03 -0.30424619D-03  0.89844308D-03 -0.51155759D-04
 -0.39412754D-04 -0.17304322D-04  0.61583761D-05  0.47446968D-05  0.20831775D-05
  0.14501862D-04  0.11172903D-04  0.49055063D-05 -0.16855666D-02 -0.47840434D-03
  0.64007551D-03  0.61062374D-04  0.36809819D-03 -0.53444750D-04  0.94536917D-03
  0.11712840D-02  0.17501653D-03 -0.12959481D-03 -0.56940728D-04 -0.10480134D-03
 -0.16958835D-03 -0.22292863D-03 -0.19120459D-03 -0.65376096D-04  0.17882290D-03
  0.79790431D-04 -0.23562221D-03 -0.12912152D-03 -0.99481167D-04 -0.43677591D-04
 -0.13215572D-04 -0.10181885D-04 -0.44703961D-05  0.24931587D-04  0.19208444D-04
  0.84335413D-05  0.56996615D-03  0.11105379D-03 -0.33611201D-04 -0.19585268D-04
 -0.24884877D-03 -0.13733534D-03 -0.13799738D-03 -0.15558032D-04  0.46162022D-04
  0.24141699D-05 -0.47451976D-05 -0.87386779D-05 -0.14119323D-04 -0.18479158D-04
 -0.15829055D-04 -0.54453784D-05  0.13507729D-04  0.66775573D-05 -0.17614968D-04
  0.68481179D-05  0.53313692D-05  0.25315227D-05 -0.35979347D-05 -0.28010496D-05
 -0.13300374D-05  0.13922560D-04  0.10838935D-04  0.51467099D-05  0.35308550D-04
 -0.16638264D-04  0.10435047D-04 -0.89981602D-05 -0.16961067D-05 -0.15634632D-04
 -0.26391681D-04 -0.12760248D-04  0.95925856D-06  0.24255479D-05 -0.30509337D-04
 -0.56283769D-04 -0.90859454D-04 -0.11827201D-03 -0.10092172D-03 -0.34845845D-04
  0.69440239D-04  0.32004943D-04 -0.89745201D-04  0.54032713D-04  0.41428857D-04
  0.20675903D-04 -0.38660432D-04 -0.29642367D-04 -0.14793619D-04 -0.15359896D-04
 -0.11776994D-04 -0.58775453D-05  0.23598507D-04 -0.22759594D-04  0.95404733D-04
  0.23403950D-04  0.65556830D-05 -0.85282910D-04 -0.58084481D-04 -0.70778853D-04
 -0.22976877D-04 -0.16316305D-04  0.28890706D-04  0.53297711D-04  0.86039031D-04