Title Card Required                                                     
SP        UB3LYP                                                      6-31G(d,p)          
Number of atoms                            I                9
Info1-9                                    I   N=           9
          17          16           0           0           0         110
           1          18        -502
Charge                                     I                0
Multiplicity                               I                3
Number of electrons                        I               26
Number of alpha electrons                  I               14
Number of beta electrons                   I               12
Number of basis functions                  I               75
Number of independent functions            I               75
Number of point charges in /Mol/           I                0
Number of translation vectors              I                0
Atomic numbers                             I   N=           9
           6           1           1           1           6           1
           1           8           1
Nuclear charges                            R   N=           9
  6.00000000E+00  1.00000000E+00  1.00000000E+00  1.00000000E+00  6.00000000E+00
  1.00000000E+00  1.00000000E+00  8.00000000E+00  1.00000000E+00
Current cartesian coordinates              R   N=          27
  2.21526358E+00 -7.76153986E-01  0.00000000E+00  2.14997544E+00 -1.98730970E+00
  1.67428602E+00  2.14997544E+00 -1.98730970E+00 -1.67428602E+00  4.01009523E+00
  2.52764098E-01  0.00000000E+00 -1.38152265E-17  1.04951988E+00  0.00000000E+00
  9.92238501E-02  2.28317278E+00  1.67570520E+00  9.92238501E-02  2.28317278E+00
 -1.67570520E+00 -2.26552085E+00 -4.04703749E-01  0.00000000E+00 -3.67590661E+00
  7.52944370E-01  0.00000000E+00
Force Field                                I                0
Int Atom Types                             I   N=           9
           0           0           0           0           0           0
           0           0           0
MM charges                                 R   N=           9
  0.00000000E+00  0.00000000E+00  0.00000000E+00  0.00000000E+00  0.00000000E+00
  0.00000000E+00  0.00000000E+00  0.00000000E+00  0.00000000E+00
Integer atomic weights                     I   N=           9
          12           1           1           1          12           1
           1          16           1
Real atomic weights                        R   N=           9
  1.20000000E+01  1.00782504E+00  1.00782504E+00  1.00782504E+00  1.20000000E+01
  1.00782504E+00  1.00782504E+00  1.59949146E+01  1.00782504E+00
Atom fragment info                         I   N=           9
           0           0           0           0           0           0
           0           0           0
Atom residue num                           I   N=           9
           0           0           0           0           0           0
           0           0           0
Nuclear spins                              I   N=           9
           0           1           1           1           0           1
           1           0           1
Nuclear ZEff                               R   N=           9
 -3.60000000E+00 -1.00000000E+00 -1.00000000E+00 -1.00000000E+00 -3.60000000E+00
 -1.00000000E+00 -1.00000000E+00 -5.60000000E+00 -1.00000000E+00
Nuclear ZNuc                               R   N=           9
  6.00000000E+00  1.00000000E+00  1.00000000E+00  1.00000000E+00  6.00000000E+00
  1.00000000E+00  1.00000000E+00  8.00000000E+00  1.00000000E+00
Nuclear QMom                               R   N=           9
  0.00000000E+00  0.00000000E+00  0.00000000E+00  0.00000000E+00  0.00000000E+00
  0.00000000E+00  0.00000000E+00  0.00000000E+00  0.00000000E+00
Nuclear GFac                               R   N=           9
  0.00000000E+00  2.79284600E+00  2.79284600E+00  2.79284600E+00  0.00000000E+00
  2.79284600E+00  2.79284600E+00  0.00000000E+00  2.79284600E+00
MicOpt                                     I   N=           9
          -1          -1          -1          -1          -1          -1
          -1          -1          -1
Number of contracted shells                I               30
Number of primitive shells                 I               63
Pure/Cartesian d shells                    I                1
Pure/Cartesian f shells                    I                0
Highest angular momentum                   I                2
Largest degree of contraction              I                6
Shell types                                I   N=          30
           0          -1          -1           2           0           0
           1           0           0           1           0           0
           1           0          -1          -1           2           0
           0           1           0           0           1           0
          -1          -1           2           0           0           1
Number of primitives per shell             I   N=          30
           6           3           1           1           3           1
           1           3           1           1           3           1
           1           6           3           1           1           3
           1           1           3           1           1           6
           3           1           1           3           1           1
Shell to atom map                          I   N=          30
           1           1           1           1           2           2
           2           3           3           3           4           4
           4           5           5           5           5           6
           6           6           7           7           7           8
           8           8           8           9           9           9
Primitive exponents                        R   N=          63
  3.04752488E+03  4.57369518E+02  1.03948685E+02  2.92101553E+01  9.28666296E+00
  3.16392696E+00  7.86827235E+00  1.88128854E+00  5.44249258E-01  1.68714478E-01
  8.00000000E-01  1.87311370E+01  2.82539436E+00  6.40121692E-01  1.61277759E-01
  1.10000000E+00  1.87311370E+01  2.82539436E+00  6.40121692E-01  1.61277759E-01
  1.10000000E+00  1.87311370E+01  2.82539436E+00  6.40121692E-01  1.61277759E-01
  1.10000000E+00  3.04752488E+03  4.57369518E+02  1.03948685E+02  2.92101553E+01
  9.28666296E+00  3.16392696E+00  7.86827235E+00  1.88128854E+00  5.44249258E-01
  1.68714478E-01  8.00000000E-01  1.87311370E+01  2.82539436E+00  6.40121692E-01
  1.61277759E-01  1.10000000E+00  1.87311370E+01  2.82539436E+00  6.40121692E-01
  1.61277759E-01  1.10000000E+00  5.48467166E+03  8.25234946E+02  1.88046958E+02
  5.29645000E+01  1.68975704E+01  5.79963534E+00  1.55396162E+01  3.59993359E+00
  1.01376175E+00  2.70005823E-01  8.00000000E-01  1.87311370E+01  2.82539436E+00
  6.40121692E-01  1.61277759E-01  1.10000000E+00
Contraction coefficients                   R   N=          63
  1.83473713E-03  1.40373228E-02  6.88426223E-02  2.32184443E-01  4.67941348E-01
  3.62311985E-01 -1.19332420E-01 -1.60854152E-01  1.14345644E+00  1.00000000E+00
  1.00000000E+00  3.34946043E-02  2.34726953E-01  8.13757326E-01  1.00000000E+00
  1.00000000E+00  3.34946043E-02  2.34726953E-01  8.13757326E-01  1.00000000E+00
  1.00000000E+00  3.34946043E-02  2.34726953E-01  8.13757326E-01  1.00000000E+00
  1.00000000E+00  1.83473713E-03  1.40373228E-02  6.88426223E-02  2.32184443E-01
  4.67941348E-01  3.62311985E-01 -1.19332420E-01 -1.60854152E-01  1.14345644E+00
  1.00000000E+00  1.00000000E+00  3.34946043E-02  2.34726953E-01  8.13757326E-01
  1.00000000E+00  1.00000000E+00  3.34946043E-02  2.34726953E-01  8.13757326E-01
  1.00000000E+00  1.00000000E+00  1.83107443E-03  1.39501722E-02  6.84450781E-02
  2.32714336E-01  4.70192898E-01  3.58520853E-01 -1.10777550E-01 -1.48026263E-01
  1.13076702E+00  1.00000000E+00  1.00000000E+00  3.34946043E-02  2.34726953E-01
  8.13757326E-01  1.00000000E+00  1.00000000E+00
P(S=P) Contraction coefficients            R   N=          63
  0.00000000E+00  0.00000000E+00  0.00000000E+00  0.00000000E+00  0.00000000E+00
  0.00000000E+00  6.89990666E-02  3.16423961E-01  7.44308291E-01  1.00000000E+00
  0.00000000E+00  0.00000000E+00  0.00000000E+00  0.00000000E+00  0.00000000E+00
  0.00000000E+00  0.00000000E+00  0.00000000E+00  0.00000000E+00  0.00000000E+00
  0.00000000E+00  0.00000000E+00  0.00000000E+00  0.00000000E+00  0.00000000E+00
  0.00000000E+00  0.00000000E+00  0.00000000E+00  0.00000000E+00  0.00000000E+00
  0.00000000E+00  0.00000000E+00  6.89990666E-02  3.16423961E-01  7.44308291E-01
  1.00000000E+00  0.00000000E+00  0.00000000E+00  0.00000000E+00  0.00000000E+00
  0.00000000E+00  0.00000000E+00  0.00000000E+00  0.00000000E+00  0.00000000E+00
  0.00000000E+00  0.00000000E+00  0.00000000E+00  0.00000000E+00  0.00000000E+00
  0.00000000E+00  0.00000000E+00  0.00000000E+00  7.08742682E-02  3.39752839E-01
  7.27158577E-01  1.00000000E+00  0.00000000E+00  0.00000000E+00  0.00000000E+00
  0.00000000E+00  0.00000000E+00  0.00000000E+00
Coordinates of each shell                  R   N=          90
  2.21526346E+00 -7.76154140E-01  0.00000000E+00  2.21526346E+00 -7.76154140E-01
  0.00000000E+00  2.21526346E+00 -7.76154140E-01  0.00000000E+00  2.21526346E+00
 -7.76154140E-01  0.00000000E+00  2.14997523E+00 -1.98730985E+00  1.67428602E+00
  2.14997523E+00 -1.98730985E+00  1.67428602E+00  2.14997523E+00 -1.98730985E+00
  1.67428602E+00  2.14997523E+00 -1.98730985E+00 -1.67428602E+00  2.14997523E+00
 -1.98730985E+00 -1.67428602E+00  2.14997523E+00 -1.98730985E+00 -1.67428602E+00
  4.01009517E+00  2.52763821E-01  0.00000000E+00  4.01009517E+00  2.52763821E-01
  0.00000000E+00  4.01009517E+00  2.52763821E-01  0.00000000E+00 -1.38902799E-23
  1.04951988E+00  0.00000000E+00 -1.38902799E-23  1.04951988E+00  0.00000000E+00
 -1.38902799E-23  1.04951988E+00  0.00000000E+00 -1.38902799E-23  1.04951988E+00
  0.00000000E+00  9.92239355E-02  2.28317278E+00  1.67570520E+00  9.92239355E-02
  2.28317278E+00  1.67570520E+00  9.92239355E-02  2.28317278E+00  1.67570520E+00
  9.92239355E-02  2.28317278E+00 -1.67570520E+00  9.92239355E-02  2.28317278E+00
 -1.67570520E+00  9.92239355E-02  2.28317278E+00 -1.67570520E+00 -2.26552095E+00
 -4.04703592E-01  0.00000000E+00 -2.26552095E+00 -4.04703592E-01  0.00000000E+00
 -2.26552095E+00 -4.04703592E-01  0.00000000E+00 -2.26552095E+00 -4.04703592E-01
  0.00000000E+00 -3.67590663E+00  7.52944625E-01  0.00000000E+00 -3.67590663E+00
  7.52944625E-01  0.00000000E+00 -3.67590663E+00  7.52944625E-01  0.00000000E+00
Constraint Structure                       R   N=          27
  2.21526346E+00 -7.76154140E-01  0.00000000E+00  2.14997523E+00 -1.98730985E+00
  1.67428602E+00  2.14997523E+00 -1.98730985E+00 -1.67428602E+00  4.01009517E+00
  2.52763821E-01  0.00000000E+00 -1.38902799E-23  1.04951988E+00  0.00000000E+00
  9.92239355E-02  2.28317278E+00  1.67570520E+00  9.92239355E-02  2.28317278E+00
 -1.67570520E+00 -2.26552095E+00 -4.04703592E-01  0.00000000E+00 -3.67590663E+00
  7.52944625E-01  0.00000000E+00
Num ILSW                                   I              100
ILSW                                       I   N=         100
           1           1           0           0           2           0
           0           0           0           0         402          -1
           0           0           0           0           0           0
           0           0           1           0           0           0
           1           0           0           0           0           0
           0           0      100000           0          -1           0
           0           0           0           0           0           0
           0           0           0           1           0           0
           0           0           1           0           0           0
           0           0           4          41           0           0
           0           0           5           0           0           0
           0           0           0           0           0           0
           0           0           0           0           0           0
           0           0           0           0           0           0
           0           0           0           0           0           0
           0           0           0           0           0           0
           0           0           0           0
Num RLSW                                   I               41
RLSW                                       R   N=          41
  8.00000000E-01  7.20000000E-01  1.00000000E+00  8.10000000E-01  2.00000000E-01
  0.00000000E+00  0.00000000E+00  1.00000000E+00  0.00000000E+00  0.00000000E+00
  0.00000000E+00  0.00000000E+00  1.00000000E+00  0.00000000E+00  0.00000000E+00
  0.00000000E+00  0.00000000E+00  1.00000000E+00  0.00000000E+00  0.00000000E+00
  0.00000000E+00  0.00000000E+00  1.00000000E+00  0.00000000E+00  0.00000000E+00
  0.00000000E+00  0.00000000E+00  1.00000000E+00  0.00000000E+00  0.00000000E+00
  0.00000000E+00  0.00000000E+00  1.00000000E+00  0.00000000E+00  0.00000000E+00
  0.00000000E+00  0.00000000E+00  0.00000000E+00  1.00000000E+00  1.00000000E+00
  0.00000000E+00
MxBond                                     I                4
NBond                                      I   N=           9
           4           1           1           1           4           1
           1           2           1
IBond                                      I   N=          36
           2           3           4           5           1           0
           0           0           1           0           0           0
           1           0           0           0           1           6
           7           8           5           0           0           0
           5           0           0           0           5           9
           0           0           8           0           0           0
RBond                                      R   N=          36
  1.00000000E+00  1.00000000E+00  1.00000000E+00  1.00000000E+00  1.00000000E+00
  0.00000000E+00  0.00000000E+00  0.00000000E+00  1.00000000E+00  0.00000000E+00
  0.00000000E+00  0.00000000E+00  1.00000000E+00  0.00000000E+00  0.00000000E+00
  0.00000000E+00  1.00000000E+00  1.00000000E+00  1.00000000E+00  1.00000000E+00
  1.00000000E+00  0.00000000E+00  0.00000000E+00  0.00000000E+00  1.00000000E+00
  0.00000000E+00  0.00000000E+00  0.00000000E+00  1.00000000E+00  1.00000000E+00
  0.00000000E+00  0.00000000E+00  1.00000000E+00  0.00000000E+00  0.00000000E+00
  0.00000000E+00
Virial Ratio                               R      2.005735125757988E+00
SCF Energy                                 R     -1.547713696516188E+02
Total Energy                               R     -1.547713696516188E+02
S**2                                       R      2.003479397046519E+00
S**2 after annihilation                    R      2.000006336075034E+00
RMS Density                                R      3.132813911288202E-09
External E-field                           R   N=          35
  0.00000000E+00  0.00000000E+00  0.00000000E+00  0.00000000E+00  0.00000000E+00
  0.00000000E+00  0.00000000E+00  0.00000000E+00  0.00000000E+00  0.00000000E+00
  0.00000000E+00  0.00000000E+00  0.00000000E+00  0.00000000E+00  0.00000000E+00
  0.00000000E+00  0.00000000E+00  0.00000000E+00  0.00000000E+00  0.00000000E+00
  0.00000000E+00  0.00000000E+00  0.00000000E+00  0.00000000E+00  0.00000000E+00
  0.00000000E+00  0.00000000E+00  0.00000000E+00  0.00000000E+00  0.00000000E+00
  0.00000000E+00  0.00000000E+00  0.00000000E+00  0.00000000E+00  0.00000000E+00
IOpCl                                      I                1
IROHF                                      I                0
Alpha Orbital Energies                     R   N=          75
 -1.92830523E+01 -1.02670672E+01 -1.01962052E+01 -1.13394091E+00 -7.86994556E-01
 -6.50889034E-01 -5.88808130E-01 -5.37509619E-01 -4.78704750E-01 -4.30155791E-01
 -4.08151291E-01 -3.85506806E-01 -3.70547544E-01 -1.01406379E-02  8.71876076E-02
  1.26790613E-01  1.35966512E-01  1.40011387E-01  1.59849598E-01  1.70134510E-01
  2.09991351E-01  4.95495708E-01  5.02237692E-01  5.17610412E-01  5.44252331E-01
  6.11897077E-01  6.38550138E-01  7.28849060E-01  7.86526204E-01  8.12466551E-01
  8.49227562E-01  8.56336732E-01  8.75188442E-01  9.12885600E-01  9.27510410E-01
  9.68654008E-01  1.06871538E+00  1.27687036E+00  1.30155526E+00  1.32772406E+00
  1.50126787E+00  1.55877639E+00  1.59065801E+00  1.64015467E+00  1.83510524E+00
  1.84792539E+00  1.87401146E+00  1.99670747E+00  2.02487680E+00  2.03025121E+00
  2.05122631E+00  2.09196767E+00  2.23149006E+00  2.23475908E+00  2.32227275E+00
  2.37319652E+00  2.40884608E+00  2.53714510E+00  2.61878309E+00  2.65280257E+00
  2.66768416E+00  2.70389095E+00  2.75963505E+00  2.85694640E+00  2.86510454E+00
  2.93031101E+00  3.15088013E+00  3.23901250E+00  3.33521465E+00  3.38774435E+00
  3.43866029E+00  3.49076173E+00  3.78466411E+00  4.29250236E+00  4.55182540E+00
Beta Orbital Energies                      R   N=          75
 -1.92531812E+01 -1.02647963E+01 -1.01965071E+01 -1.06504783E+00 -7.72635672E-01
 -6.38779544E-01 -5.58702655E-01 -4.87488597E-01 -4.52122808E-01 -4.02974734E-01
 -3.82988356E-01 -3.73010710E-01 -2.19620640E-01  8.32911856E-02  1.05949076E-01
  1.35528623E-01  1.44982899E-01  1.61005158E-01  1.75980209E-01  1.87335415E-01
  2.15383614E-01  5.01156995E-01  5.16169958E-01  5.25329831E-01  5.50288820E-01
  6.32497359E-01  6.46355125E-01  7.60236621E-01  8.04475759E-01  8.34876604E-01
  8.53531095E-01  8.64944281E-01  8.89818590E-01  9.53909236E-01  9.72183323E-01
  9.78754617E-01  1.08787613E+00  1.29194012E+00  1.31452103E+00  1.33974829E+00
  1.54729165E+00  1.57140138E+00  1.60976804E+00  1.64772675E+00  1.84051916E+00
  1.88483490E+00  1.89875745E+00  2.00756248E+00  2.03081226E+00  2.03837006E+00
  2.06048319E+00  2.09722121E+00  2.24289758E+00  2.26399068E+00  2.34131677E+00
  2.39240749E+00  2.42199422E+00  2.55716133E+00  2.66632227E+00  2.67259605E+00
  2.68279494E+00  2.71225360E+00  2.76987368E+00  2.87165758E+00  2.87171250E+00
  2.94668270E+00  3.15636085E+00  3.25341552E+00  3.34474910E+00  3.41945299E+00
  3.45156512E+00  3.49884245E+00  3.81942781E+00  4.29698316E+00  4.55535753E+00
Alpha MO coefficients                      R   N=        5625
  3.19705065E-06  7.81401544E-05 -1.03966473E-04 -5.04343457E-06  0.00000000E+00
  6.79468593E-04  2.10378661E-04  3.15681616E-04  0.00000000E+00 -7.57135213E-05
  1.02381145E-05  2.31884538E-05 -1.76091349E-05  0.00000000E+00  0.00000000E+00
  3.98870826E-05 -2.03069859E-05 -4.94181293E-05 -1.42211873E-05  7.48379365E-06
  3.98870826E-05 -2.03069859E-05 -4.94181293E-05 -1.42211873E-05 -7.48379365E-06
 -3.56665807E-05 -3.96741728E-04  2.60876700E-05 -1.36822332E-05  0.00000000E+00
  2.43126152E-05  2.45601670E-04 -2.63098752E-04 -2.60858695E-04  0.00000000E+00
 -2.21268748E-03  4.99769270E-04  8.66358797E-04  0.00000000E+00  2.70192135E-04
  2.15163423E-04  9.06174240E-05  1.91581239E-04  0.00000000E+00  0.00000000E+00
  5.41844483E-05  1.74360805E-05  3.05534746E-05  1.47358031E-05  5.28422279E-05
  5.41844483E-05  1.74360805E-05  3.05534746E-05  1.47358031E-05 -5.28422279E-05
  9.92541427E-01  2.66080088E-02  7.14451804E-05  6.19258621E-04  0.00000000E+00
  1.23965518E-02  3.80983850E-04  3.34313092E-04  0.00000000E+00 -8.55832037E-03
 -8.48625791E-03 -8.24871247E-03 -6.36134026E-05  0.00000000E+00  0.00000000E+00
  4.55616254E-04 -1.36133698E-03 -6.42253965E-05 -3.72024777E-05  0.00000000E+00
  1.49962461E-03 -2.64951396E-04  6.35931426E-05 -4.10113610E-05  0.00000000E+00
  4.80630351E-03 -1.92011393E-03  1.57133093E-03  0.00000000E+00 -2.81020864E-04
 -2.26736499E-04 -1.97944868E-04  7.21508077E-05  0.00000000E+00  0.00000000E+00
 -1.70025446E-04  1.58459725E-04 -1.94795933E-05  4.45594711E-05 -4.70825009E-05
 -1.70025446E-04  1.58459725E-04 -1.94795933E-05  4.45594711E-05  4.70825009E-05
 -1.40276483E-04  2.47947632E-05 -3.68960867E-05 -2.95471210E-05  0.00000000E+00
  9.92939412E-01  4.96718042E-02 -8.49864412E-04 -3.65059758E-04  0.00000000E+00
 -1.62094391E-02 -1.16861684E-03  8.96125689E-04  0.00000000E+00 -8.96429049E-03
 -8.99895557E-03 -8.95823578E-03  3.20666171E-04  0.00000000E+00  0.00000000E+00
 -6.29785760E-05  2.58414395E-03  5.68075985E-05  3.08762768E-05  1.17777023E-04
 -6.29785760E-05  2.58414395E-03  5.68075985E-05  3.08762768E-05 -1.17777023E-04
 -1.16349323E-04 -2.14538622E-04 -9.27271962E-05 -1.04565307E-04  0.00000000E+00
  2.31433952E-03  1.83119774E-04 -1.55314585E-04  0.00000000E+00 -7.08791101E-04
 -4.36749977E-04  1.28712336E-06 -4.22568825E-04  0.00000000E+00  0.00000000E+00
  4.38586060E-05  2.76354385E-04  1.68502354E-04  4.82410032E-05  0.00000000E+00
  9.92939583E-01  4.98174917E-02 -4.51152780E-05  2.27625205E-05  0.00000000E+00
 -1.69087126E-02  1.04280933E-03 -6.21963912E-04  0.00000000E+00 -9.00288016E-03
 -8.98903471E-03 -8.90077372E-03  1.32844469E-04  0.00000000E+00  0.00000000E+00
 -1.01254820E-04  2.67087759E-03 -6.10080328E-05 -9.16229101E-05  1.61003476E-04
 -1.01254820E-04  2.67087759E-03 -6.10080328E-05 -9.16229101E-05 -1.61003476E-04
 -1.49426525E-04  2.48588365E-03  1.63898539E-04  1.48444687E-04  0.00000000E+00
 -1.75427258E-03 -2.77092292E-04 -8.87714462E-05  1.20548212E-04  0.00000000E+00
  4.34135689E-03  1.76292290E-03 -1.27799270E-03  0.00000000E+00 -3.29243160E-04
 -3.08725796E-04 -1.34654968E-04  1.29929921E-04  0.00000000E+00  0.00000000E+00
 -1.43083806E-04  6.27599433E-05  1.80569447E-05 -4.87849805E-05 -3.13984881E-05
 -1.43083806E-04  6.27599433E-05  1.80569447E-05 -4.87849805E-05  3.13984881E-05
 -2.18932398E-05 -1.31535896E-04 -9.41498574E-05  2.35567007E-05  0.00000000E+00
  1.08027908E-04  4.31136263E-04 -1.71988889E-04  0.00000000E+00  4.32922248E-05
 -7.87502141E-05 -1.59572644E-04  1.77733066E-06  0.00000000E+00  0.00000000E+00
  1.11477464E-04  3.08359770E-04  4.47214258E-05 -2.02113892E-06  0.00000000E+00
 -1.03135216E-02  1.90780234E-02 -1.70407799E-02  5.92511241E-03  0.00000000E+00
  1.55132790E-02 -1.67373640E-03  3.94004409E-03  0.00000000E+00  3.32483793E-03
  3.36633007E-04 -7.16986485E-04 -2.41381051E-03  0.00000000E+00  0.00000000E+00
  4.18837826E-03  2.30666984E-03 -7.68034772E-04  3.87067107E-04 -5.17313076E-04
  4.18837826E-03  2.30666984E-03 -7.68034772E-04  3.87067107E-04  5.17313076E-04
  2.04255539E-03 -5.46162892E-03  2.05807552E-04 -2.03487635E-04  0.00000000E+00
 -6.34451268E-02  1.21484455E-01 -8.23634487E-02 -5.12402246E-02  0.00000000E+00
  1.74202418E-02  6.50999763E-03  1.16667176E-02  0.00000000E+00  1.28698872E-02
 -2.20196513E-03 -9.91145860E-03  1.42065258E-02  0.00000000E+00  0.00000000E+00
  2.10610215E-02  2.31087303E-03 -1.10620786E-03 -3.01305260E-03 -2.77467571E-03
  2.10610215E-02  2.31087303E-03 -1.10620786E-03 -3.01305260E-03  2.77467571E-03
 -2.13819819E-01  4.97160428E-01  1.68420190E-02  1.02445645E-01  0.00000000E+00
  4.38631406E-01  3.05473269E-02  3.80684881E-02  0.00000000E+00 -9.32144484E-04
 -4.08518370E-03  5.84313948E-03  7.18611121E-03  0.00000000E+00  0.00000000E+00
  1.18992519E-01  2.30871899E-03  1.76893561E-02 -1.33826257E-02  0.00000000E+00
 -1.39599212E-01  2.67905869E-01 -5.13814708E-02  4.47733919E-02  0.00000000E+00
  2.04380983E-01 -2.53505202E-03  5.10074668E-03  0.00000000E+00 -2.53609426E-03
 -3.92438426E-03 -8.91854810E-03 -6.82054280E-03  0.00000000E+00  0.00000000E+00
  7.93314512E-02  1.69225245E-02 -4.72404588E-04  5.36261217E-03 -6.52429707E-03
  7.93314512E-02  1.69225245E-02 -4.72404588E-04  5.36261217E-03  6.52429707E-03
  7.99573591E-02  1.68894989E-02 -7.73965319E-03 -3.42454260E-03  0.00000000E+00
 -1.43314710E-01  2.84299068E-01  7.90625939E-02 -3.18033097E-02  0.00000000E+00
  2.41998179E-01  2.55174083E-02 -8.72627130E-03  0.00000000E+00 -7.21808337E-03
 -2.00042497E-03 -7.72218374E-03 -5.56570236E-03  0.00000000E+00  0.00000000E+00
  9.14510831E-02  1.98353304E-02  7.64748977E-04 -5.60983247E-03 -6.95210275E-03
  9.14510831E-02  1.98353304E-02  7.64748977E-04 -5.60983247E-03  6.95210275E-03
  4.99509444E-02 -1.22101383E-01  1.73091914E-01 -5.56775897E-03  0.00000000E+00
 -1.39861259E-01  6.83748487E-02  1.69949523E-03  0.00000000E+00  9.05304742E-03
  2.25023570E-03 -3.92936038E-03  9.39327192E-03  0.00000000E+00  0.00000000E+00
 -8.33305269E-02 -1.88441409E-02 -6.52074082E-03  8.08733811E-03  0.00000000E+00
 -1.38634952E-01  2.72393223E-01  7.62572296E-02 -6.62073955E-02  0.00000000E+00
  2.74832284E-01  1.27669639E-02 -1.48933058E-02  0.00000000E+00 -1.02026923E-02
 -8.64622102E-03 -2.94574303E-03  7.68629089E-03  0.00000000E+00  0.00000000E+00
  1.19392145E-01  4.74749830E-02  1.66115085E-03  5.18683938E-03 -8.39553970E-03
  1.19392145E-01  4.74749830E-02  1.66115085E-03  5.18683938E-03  8.39553970E-03
  1.18103667E-01  5.03037117E-02 -7.80850705E-03 -5.87433611E-03  0.00000000E+00
  1.08291790E-01 -2.27013269E-01  1.07871611E-01 -8.87932814E-02  0.00000000E+00
 -2.19528151E-01  1.82832127E-02 -2.83293344E-02  0.00000000E+00  1.08663139E-02
  7.10939189E-03  1.05430828E-03 -1.34493963E-02  0.00000000E+00  0.00000000E+00
 -1.09974790E-01 -4.25536240E-02  1.72158457E-03  4.16899740E-03  7.21059545E-03
 -1.09974790E-01 -4.25536240E-02  1.72158457E-03  4.16899740E-03 -7.21059545E-03
 -3.29438877E-02  7.92481360E-02 -2.25973363E-01 -8.71621303E-02  0.00000000E+00
  1.05394572E-01 -1.04158021E-01 -4.74950782E-02  0.00000000E+00 -3.37010416E-03
 -7.21584418E-03  3.56240618E-03 -1.45832301E-02  0.00000000E+00  0.00000000E+00
  7.53022467E-02  3.00725894E-02  2.39370512E-03 -8.37141421E-03  0.00000000E+00
  5.73808675E-03 -8.95654393E-03 -5.67897822E-02 -6.46779407E-02  0.00000000E+00
 -2.11172983E-02 -2.63719632E-02 -2.98328557E-02  0.00000000E+00  2.61186537E-03
 -4.90611086E-03  1.47501833E-03  1.18878490E-03  0.00000000E+00  0.00000000E+00
  1.47537894E-02  1.12602385E-02 -1.96009344E-03  2.09363159E-05 -8.19520221E-04
  1.47537894E-02  1.12602385E-02 -1.96009344E-03  2.09363159E-05  8.19520221E-04
 -4.20343119E-02 -1.77771887E-02  2.11679612E-03 -2.13933686E-04  0.00000000E+00
  3.72500817E-02 -7.61441364E-02 -1.14105227E-01 -2.53038403E-01  0.00000000E+00
 -8.79875427E-02 -2.35938037E-02 -8.80164476E-02  0.00000000E+00  4.16065692E-03
  1.27188751E-02 -1.18434713E-02  1.64805521E-02  0.00000000E+00  0.00000000E+00
 -1.12071910E-01 -5.70268695E-02 -1.42101483E-03  1.18096665E-03  5.76173321E-03
 -1.12071910E-01 -5.70268695E-02 -1.42101483E-03  1.18096665E-03 -5.76173321E-03
 -3.12540261E-02  7.11728727E-02  4.27356617E-01 -2.01919571E-01  0.00000000E+00
  1.26234324E-01  2.04550878E-01 -1.06139454E-01  0.00000000E+00  5.82457649E-03
 -1.59198563E-02  2.41939932E-03  1.17713505E-02  0.00000000E+00  0.00000000E+00
 -1.91417396E-01 -9.45244303E-02 -8.24452405E-03  1.04151115E-02  0.00000000E+00
  0.00000000E+00  0.00000000E+00  0.00000000E+00  0.00000000E+00  1.24198752E-01
  0.00000000E+00  0.00000000E+00  0.00000000E+00  3.79040368E-02  0.00000000E+00
  0.00000000E+00  0.00000000E+00  0.00000000E+00 -6.11411743E-03 -1.81128085E-04
  5.38970188E-02  4.24385568E-02 -1.14590500E-03  2.81750569E-03 -5.99216492E-04
 -5.38970188E-02 -4.24385568E-02  1.14590500E-03 -2.81750569E-03 -5.99216492E-04
  0.00000000E+00  0.00000000E+00  0.00000000E+00  0.00000000E+00  2.25703107E-03
  0.00000000E+00  0.00000000E+00  0.00000000E+00  0.00000000E+00  3.16089841E-01
  0.00000000E+00  0.00000000E+00  0.00000000E+00  1.36496693E-01  0.00000000E+00
  0.00000000E+00  0.00000000E+00  0.00000000E+00 -8.88923882E-03  3.69125502E-03
  1.38347209E-01  8.73590844E-02 -6.34126090E-04 -6.17801278E-03 -1.39819865E-03
 -1.38347209E-01 -8.73590844E-02  6.34126090E-04  6.17801278E-03 -1.39819865E-03
  0.00000000E+00  0.00000000E+00  0.00000000E+00  0.00000000E+00  4.60960461E-01
  0.00000000E+00  0.00000000E+00  0.00000000E+00  2.65630895E-01  0.00000000E+00
  0.00000000E+00  0.00000000E+00  0.00000000E+00  9.48359167E-03  1.81044688E-02
  0.00000000E+00  0.00000000E+00  0.00000000E+00  0.00000000E+00  9.32942761E-03
 -2.21396639E-02  4.25766732E-02  8.55343630E-02 -1.54357416E-01  0.00000000E+00
  9.21948247E-02  4.19952168E-02 -4.26506509E-02  0.00000000E+00 -3.22706563E-03
 -3.67240554E-03  5.65803023E-03  4.84546815E-03  0.00000000E+00  0.00000000E+00
  7.05001842E-02  4.02893646E-02  1.90976605E-03 -1.68579874E-04 -3.49917047E-03
  7.05001842E-02  4.02893646E-02  1.90976605E-03 -1.68579874E-04  3.49917047E-03
  1.92922528E-02 -2.20939622E-03  8.51611667E-04 -3.81172814E-03  0.00000000E+00
  1.83267805E-02 -3.68097592E-02 -2.70820405E-01 -6.03254593E-02  0.00000000E+00
 -6.38448864E-02 -1.24794783E-01 -2.52801272E-04  0.00000000E+00  2.04331841E-02
 -6.96052717E-03 -7.23386373E-03  8.65299717E-03  0.00000000E+00  0.00000000E+00
 -5.26097007E-02 -3.94392515E-02 -3.93001349E-03  1.05437249E-03  2.52338437E-03
 -5.26097007E-02 -3.94392515E-02 -3.93001349E-03  1.05437249E-03 -2.52338437E-03
  4.95987166E-02 -9.66271248E-02  1.47406246E-01  5.20674194E-01  0.00000000E+00
 -2.32436187E-01  7.49504733E-02  2.98023975E-01  0.00000000E+00 -1.41570601E-04
  3.01285475E-02 -4.45115081E-03  7.17678352E-03  0.00000000E+00  0.00000000E+00
  6.52887982E-02  2.20268292E-02  9.45834344E-03  7.36893744E-03  0.00000000E+00
  0.00000000E+00  0.00000000E+00  0.00000000E+00  0.00000000E+00 -3.10772523E-01
  0.00000000E+00  0.00000000E+00  0.00000000E+00 -1.60693581E-01  0.00000000E+00
  0.00000000E+00  0.00000000E+00  0.00000000E+00  4.10447039E-03  1.12307413E-02