 Generated by Multiwfn
GAUSSIAN             38 MOL ORBITALS    308 PRIMITIVES       14 NUCLEI
  C    1    (CENTRE  1)  -2.59526653 -0.00014449 -0.00000326  CHARGE =  6.0
  C    2    (CENTRE  2)   0.09977853 -0.00000772  0.00001881  CHARGE =  6.0
  N    3    (CENTRE  3)  -3.90123728  2.14316476  0.33049585  CHARGE =  7.0
  H    4    (CENTRE  4)  -5.74480993  2.20625734 -0.13416473  CHARGE =  1.0
  H    5    (CENTRE  5)  -2.84807049  3.74193293  0.53257166  CHARGE =  1.0
  N    6    (CENTRE  6)  -3.90103100 -2.14357789 -0.33054714  CHARGE =  7.0
  H    7    (CENTRE  7)  -2.84767784 -3.74224378 -0.53251807  CHARGE =  1.0
  H    8    (CENTRE  8)  -5.74457551 -2.20686945  0.13420388  CHARGE =  1.0
  N    9    (CENTRE  9)   1.51065899  2.29147786 -0.18871199  CHARGE =  7.0
  O   10    (CENTRE 10)   0.43240085  4.30770741  0.40762924  CHARGE =  8.0
  O   11    (CENTRE 11)   3.66862033  2.23442860 -0.98892221  CHARGE =  8.0
  N   12    (CENTRE 12)   1.51092618 -2.29131633  0.18874580  CHARGE =  7.0
  O   13    (CENTRE 13)   3.66892045 -2.23399541  0.98885211  CHARGE =  8.0
  O   14    (CENTRE 14)   0.43291380 -4.30769093 -0.40756710  CHARGE =  8.0
CENTRE ASSIGNMENTS    1  1  1  1  1  1  1  1  1  1  1  1  1  1  1  1  1  1  1  1
CENTRE ASSIGNMENTS    1  1  1  1  1  1  1  1  2  2  2  2  2  2  2  2  2  2  2  2
CENTRE ASSIGNMENTS    2  2  2  2  2  2  2  2  2  2  2  2  2  2  2  2  3  3  3  3
CENTRE ASSIGNMENTS    3  3  3  3  3  3  3  3  3  3  3  3  3  3  3  3  3  3  3  3
CENTRE ASSIGNMENTS    3  3  3  3  4  4  4  4  4  4  4  5  5  5  5  5  5  5  6  6
CENTRE ASSIGNMENTS    6  6  6  6  6  6  6  6  6  6  6  6  6  6  6  6  6  6  6  6
CENTRE ASSIGNMENTS    6  6  6  6  6  6  7  7  7  7  7  7  7  8  8  8  8  8  8  8
CENTRE ASSIGNMENTS    9  9  9  9  9  9  9  9  9  9  9  9  9  9  9  9  9  9  9  9
CENTRE ASSIGNMENTS    9  9  9  9  9  9  9  9 10 10 10 10 10 10 10 10 10 10 10 10
CENTRE ASSIGNMENTS   10 10 10 10 10 10 10 10 10 10 10 10 10 10 10 10 11 11 11 11
CENTRE ASSIGNMENTS   11 11 11 11 11 11 11 11 11 11 11 11 11 11 11 11 11 11 11 11
CENTRE ASSIGNMENTS   11 11 11 11 12 12 12 12 12 12 12 12 12 12 12 12 12 12 12 12
CENTRE ASSIGNMENTS   12 12 12 12 12 12 12 12 12 12 12 12 13 13 13 13 13 13 13 13
CENTRE ASSIGNMENTS   13 13 13 13 13 13 13 13 13 13 13 13 13 13 13 13 13 13 13 13
CENTRE ASSIGNMENTS   14 14 14 14 14 14 14 14 14 14 14 14 14 14 14 14 14 14 14 14
CENTRE ASSIGNMENTS   14 14 14 14 14 14 14 14
TYPE ASSIGNMENTS      1  1  1  1  1  1  1  1  1  2  2  2  3  3  3  4  4  4  1  2
TYPE ASSIGNMENTS      3  4  5  6  7  8  9 10  1  1  1  1  1  1  1  1  1  2  2  2
TYPE ASSIGNMENTS      3  3  3  4  4  4  1  2  3  4  5  6  7  8  9 10  1  1  1  1
TYPE ASSIGNMENTS      1  1  1  1  1  2  2  2  3  3  3  4  4  4  1  2  3  4  5  6
TYPE ASSIGNMENTS      7  8  9 10  1  1  1  1  2  3  4  1  1  1  1  2  3  4  1  1
TYPE ASSIGNMENTS      1  1  1  1  1  1  1  2  2  2  3  3  3  4  4  4  1  2  3  4
TYPE ASSIGNMENTS      5  6  7  8  9 10  1  1  1  1  2  3  4  1  1  1  1  2  3  4
TYPE ASSIGNMENTS      1  1  1  1  1  1  1  1  1  2  2  2  3  3  3  4  4  4  1  2
TYPE ASSIGNMENTS      3  4  5  6  7  8  9 10  1  1  1  1  1  1  1  1  1  2  2  2
TYPE ASSIGNMENTS      3  3  3  4  4  4  1  2  3  4  5  6  7  8  9 10  1  1  1  1
TYPE ASSIGNMENTS      1  1  1  1  1  2  2  2  3  3  3  4  4  4  1  2  3  4  5  6
TYPE ASSIGNMENTS      7  8  9 10  1  1  1  1  1  1  1  1  1  2  2  2  3  3  3  4
TYPE ASSIGNMENTS      4  4  1  2  3  4  5  6  7  8  9 10  1  1  1  1  1  1  1  1
TYPE ASSIGNMENTS      1  2  2  2  3  3  3  4  4  4  1  2  3  4  5  6  7  8  9 10
TYPE ASSIGNMENTS      1  1  1  1  1  1  1  1  1  2  2  2  3  3  3  4  4  4  1  2
TYPE ASSIGNMENTS      3  4  5  6  7  8  9 10
EXPONENTS  0.3047525D+04 0.4573695D+03 0.1039487D+03 0.2921016D+02 0.9286663D+01
EXPONENTS  0.3163927D+01 0.7868272D+01 0.1881289D+01 0.5442493D+00 0.7868272D+01
EXPONENTS  0.1881289D+01 0.5442493D+00 0.7868272D+01 0.1881289D+01 0.5442493D+00
EXPONENTS  0.7868272D+01 0.1881289D+01 0.5442493D+00 0.1687145D+00 0.1687145D+00
EXPONENTS  0.1687145D+00 0.1687145D+00 0.8000000D+00 0.8000000D+00 0.8000000D+00
EXPONENTS  0.8000000D+00 0.8000000D+00 0.8000000D+00 0.3047525D+04 0.4573695D+03
EXPONENTS  0.1039487D+03 0.2921016D+02 0.9286663D+01 0.3163927D+01 0.7868272D+01
EXPONENTS  0.1881289D+01 0.5442493D+00 0.7868272D+01 0.1881289D+01 0.5442493D+00
EXPONENTS  0.7868272D+01 0.1881289D+01 0.5442493D+00 0.7868272D+01 0.1881289D+01
EXPONENTS  0.5442493D+00 0.1687145D+00 0.1687145D+00 0.1687145D+00 0.1687145D+00
EXPONENTS  0.8000000D+00 0.8000000D+00 0.8000000D+00 0.8000000D+00 0.8000000D+00
EXPONENTS  0.8000000D+00 0.4173511D+04 0.6274579D+03 0.1429021D+03 0.4023433D+02
EXPONENTS  0.1282021D+02 0.4390437D+01 0.1162636D+02 0.2716280D+01 0.7722184D+00
EXPONENTS  0.1162636D+02 0.2716280D+01 0.7722184D+00 0.1162636D+02 0.2716280D+01
EXPONENTS  0.7722184D+00 0.1162636D+02 0.2716280D+01 0.7722184D+00 0.2120315D+00
EXPONENTS  0.2120315D+00 0.2120315D+00 0.2120315D+00 0.8000000D+00 0.8000000D+00
EXPONENTS  0.8000000D+00 0.8000000D+00 0.8000000D+00 0.8000000D+00 0.1873114D+02
EXPONENTS  0.2825394D+01 0.6401217D+00 0.1612778D+00 0.1100000D+01 0.1100000D+01
EXPONENTS  0.1100000D+01 0.1873114D+02 0.2825394D+01 0.6401217D+00 0.1612778D+00
EXPONENTS  0.1100000D+01 0.1100000D+01 0.1100000D+01 0.4173511D+04 0.6274579D+03
EXPONENTS  0.1429021D+03 0.4023433D+02 0.1282021D+02 0.4390437D+01 0.1162636D+02
EXPONENTS  0.2716280D+01 0.7722184D+00 0.1162636D+02 0.2716280D+01 0.7722184D+00
EXPONENTS  0.1162636D+02 0.2716280D+01 0.7722184D+00 0.1162636D+02 0.2716280D+01
EXPONENTS  0.7722184D+00 0.2120315D+00 0.2120315D+00 0.2120315D+00 0.2120315D+00
EXPONENTS  0.8000000D+00 0.8000000D+00 0.8000000D+00 0.8000000D+00 0.8000000D+00
EXPONENTS  0.8000000D+00 0.1873114D+02 0.2825394D+01 0.6401217D+00 0.1612778D+00
EXPONENTS  0.1100000D+01 0.1100000D+01 0.1100000D+01 0.1873114D+02 0.2825394D+01
EXPONENTS  0.6401217D+00 0.1612778D+00 0.1100000D+01 0.1100000D+01 0.1100000D+01
EXPONENTS  0.4173511D+04 0.6274579D+03 0.1429021D+03 0.4023433D+02 0.1282021D+02
EXPONENTS  0.4390437D+01 0.1162636D+02 0.2716280D+01 0.7722184D+00 0.1162636D+02
EXPONENTS  0.2716280D+01 0.7722184D+00 0.1162636D+02 0.2716280D+01 0.7722184D+00
EXPONENTS  0.1162636D+02 0.2716280D+01 0.7722184D+00 0.2120315D+00 0.2120315D+00
EXPONENTS  0.2120315D+00 0.2120315D+00 0.8000000D+00 0.8000000D+00 0.8000000D+00
EXPONENTS  0.8000000D+00 0.8000000D+00 0.8000000D+00 0.5484672D+04 0.8252349D+03
EXPONENTS  0.1880470D+03 0.5296450D+02 0.1689757D+02 0.5799635D+01 0.1553962D+02
EXPONENTS  0.3599934D+01 0.1013762D+01 0.1553962D+02 0.3599934D+01 0.1013762D+01
EXPONENTS  0.1553962D+02 0.3599934D+01 0.1013762D+01 0.1553962D+02 0.3599934D+01
EXPONENTS  0.1013762D+01 0.2700058D+00 0.2700058D+00 0.2700058D+00 0.2700058D+00
EXPONENTS  0.8000000D+00 0.8000000D+00 0.8000000D+00 0.8000000D+00 0.8000000D+00
EXPONENTS  0.8000000D+00 0.5484672D+04 0.8252349D+03 0.1880470D+03 0.5296450D+02
EXPONENTS  0.1689757D+02 0.5799635D+01 0.1553962D+02 0.3599934D+01 0.1013762D+01
EXPONENTS  0.1553962D+02 0.3599934D+01 0.1013762D+01 0.1553962D+02 0.3599934D+01
EXPONENTS  0.1013762D+01 0.1553962D+02 0.3599934D+01 0.1013762D+01 0.2700058D+00
EXPONENTS  0.2700058D+00 0.2700058D+00 0.2700058D+00 0.8000000D+00 0.8000000D+00
EXPONENTS  0.8000000D+00 0.8000000D+00 0.8000000D+00 0.8000000D+00 0.4173511D+04
EXPONENTS  0.6274579D+03 0.1429021D+03 0.4023433D+02 0.1282021D+02 0.4390437D+01
EXPONENTS  0.1162636D+02 0.2716280D+01 0.7722184D+00 0.1162636D+02 0.2716280D+01
EXPONENTS  0.7722184D+00 0.1162636D+02 0.2716280D+01 0.7722184D+00 0.1162636D+02
EXPONENTS  0.2716280D+01 0.7722184D+00 0.2120315D+00 0.2120315D+00 0.2120315D+00
EXPONENTS  0.2120315D+00 0.8000000D+00 0.8000000D+00 0.8000000D+00 0.8000000D+00
EXPONENTS  0.8000000D+00 0.8000000D+00 0.5484672D+04 0.8252349D+03 0.1880470D+03
EXPONENTS  0.5296450D+02 0.1689757D+02 0.5799635D+01 0.1553962D+02 0.3599934D+01
EXPONENTS  0.1013762D+01 0.1553962D+02 0.3599934D+01 0.1013762D+01 0.1553962D+02
EXPONENTS  0.3599934D+01 0.1013762D+01 0.1553962D+02 0.3599934D+01 0.1013762D+01
EXPONENTS  0.2700058D+00 0.2700058D+00 0.2700058D+00 0.2700058D+00 0.8000000D+00
EXPONENTS  0.8000000D+00 0.8000000D+00 0.8000000D+00 0.8000000D+00 0.8000000D+00
EXPONENTS  0.5484672D+04 0.8252349D+03 0.1880470D+03 0.5296450D+02 0.1689757D+02
EXPONENTS  0.5799635D+01 0.1553962D+02 0.3599934D+01 0.1013762D+01 0.1553962D+02
EXPONENTS  0.3599934D+01 0.1013762D+01 0.1553962D+02 0.3599934D+01 0.1013762D+01
EXPONENTS  0.1553962D+02 0.3599934D+01 0.1013762D+01 0.2700058D+00 0.2700058D+00
EXPONENTS  0.2700058D+00 0.2700058D+00 0.8000000D+00 0.8000000D+00 0.8000000D+00
EXPONENTS  0.8000000D+00 0.8000000D+00 0.8000000D+00
MO    1     MO 0.0        OCC NO =    2.0000000  ORB. ENERGY =  -19.170706
  0.15445336D-04  0.28493629D-04  0.45997552D-04  0.59875146D-04  0.51091570D-04
  0.17640691D-04 -0.35210513D-04 -0.16228493D-04  0.45506389D-04 -0.48043849D-04
 -0.36836976D-04 -0.18384233D-04  0.51377153D-04  0.39392742D-04  0.19659739D-04
  0.20277188D-04  0.15547262D-04  0.77591733D-05 -0.21423178D-03 -0.37976888D-03
  0.10949244D-03 -0.17928322D-06  0.25121790D-04  0.14180626D-03  0.50097818D-04
 -0.13515342D-04 -0.21881808D-04  0.16362915D-04 -0.11431184D-04 -0.21088302D-04
 -0.34043059D-04 -0.44313947D-04 -0.37813171D-04 -0.13055979D-04 -0.28225644D-05
 -0.13009173D-05  0.36479080D-05  0.11378664D-04  0.87244378D-05  0.43541059D-05
 -0.12079008D-04 -0.92614169D-05 -0.46220961D-05  0.15708815D-04  0.12044523D-04
  0.60110612D-05  0.25688932D-03 -0.43510244D-03 -0.91755660D-04  0.20088247D-04
 -0.27163055D-04 -0.21376853D-03 -0.47305545D-04 -0.78949386D-04  0.34808710D-04
  0.13087809D-04  0.78163299D-05  0.14394425D-04  0.23257469D-04  0.30439027D-04
  0.26073754D-04  0.89696735D-05 -0.42693339D-04 -0.21105488D-04  0.55674925D-04
  0.55252220D-04  0.43014735D-04  0.20424918D-04 -0.12764299D-03 -0.99372105D-04
 -0.47185391D-04 -0.23226754D-04 -0.18082399D-04 -0.85861626D-05 -0.11663226D-03
 -0.13698006D-05  0.25595429D-03  0.41376534D-04  0.68647454D-05 -0.38281066D-04
  0.48588713D-04  0.11206296D-03  0.29859466D-04 -0.51462024D-04  0.13898377D-05
  0.23574277D-05  0.26838481D-05 -0.11008974D-04 -0.15007169D-04 -0.69601729D-04
 -0.36642456D-05 -0.25317663D-04 -0.42943549D-04 -0.48889712D-04 -0.26540296D-03
 -0.14057312D-03  0.60094976D-04  0.24352951D-04  0.56051889D-05  0.10322424D-04
  0.16678225D-04  0.21828211D-04  0.18697819D-04  0.64322662D-05 -0.20404154D-04
 -0.10086811D-04  0.26608361D-04 -0.44619189D-05 -0.34736751D-05 -0.16494238D-05
  0.36556423D-04  0.28459759D-04  0.13513700D-04  0.27151499D-06  0.21137876D-06
  0.10037011D-06 -0.50667327D-04  0.58192108D-04 -0.10783917D-03 -0.10679136D-04
  0.33145499D-04 -0.31508361D-04  0.31508312D-04 -0.33695730D-04  0.16143566D-05
 -0.12299489D-04 -0.12958136D-04 -0.21979452D-04 -0.25022829D-04 -0.72508604D-04
 -0.15288900D-04 -0.47764185D-05 -0.51141759D-05  0.74798230D-05  0.12687195D-04
  0.14443924D-04  0.64607643D-05 -0.16666590D-04  0.62146673D-05 -0.15836115D-04
  0.23216263D-04  0.42754688D-04  0.69079928D-04  0.90410775D-04  0.77444932D-04
  0.26641954D-04 -0.19939476D-03 -0.98570966D-04  0.26002389D-03 -0.23791485D-03
 -0.18522051D-03 -0.87949251D-04  0.50496476D-03  0.39312313D-03  0.18666877D-03
  0.11708953D-03  0.91156065D-04  0.43284124D-04 -0.26445687D-03  0.38611617D-03
 -0.59525916D-03 -0.16247566D-03  0.16644580D-04 -0.38176095D-03  0.43238401D-04
  0.85623683D-03  0.10635419D-03 -0.38915947D-03  0.81278470D+00  0.14959577D+01
  0.24207420D+01  0.31821331D+01  0.27292971D+01  0.93319303D+00 -0.15571229D-01
 -0.69478521D-02  0.20517100D-01  0.17430632D-02  0.13429363D-02  0.58962135D-03
 -0.34152635D-02 -0.26312765D-02 -0.11552721D-02 -0.96350858D-03 -0.74233142D-03
 -0.32592348D-03  0.34606118D-02  0.51703723D-04 -0.38070997D-03 -0.10823735D-03
 -0.85266797D-02 -0.83111081D-02 -0.86969723D-02 -0.32212992D-03 -0.12842892D-03
  0.24645263D-03 -0.25984578D-01 -0.47825494D-01 -0.77390677D-01 -0.10173221D+00
 -0.87255127D-01 -0.29834010D-01  0.42997268D-03  0.19185297D-03 -0.56654440D-03
  0.20218902D-03  0.15577574D-03  0.68393940D-04 -0.86736004D-04 -0.66825416D-04
 -0.29339957D-04 -0.69592129D-04 -0.53616984D-04 -0.23540744D-04 -0.38961470D-03
  0.11264804D-03  0.55940425D-04 -0.48706500D-04  0.26859599D-03  0.32208648D-03
  0.29992246D-03  0.16718571D-03  0.76251393D-04 -0.64283376D-04  0.67885402D-05
  0.12501664D-04  0.20199283D-04  0.26436519D-04  0.22645248D-04  0.77902276D-05
 -0.43956568D-04 -0.21729966D-04  0.57322258D-04 -0.51474229D-04 -0.40073509D-04
 -0.19028320D-04 -0.59657237D-04 -0.46444111D-04 -0.22053307D-04 -0.28060578D-04
 -0.21845608D-04 -0.10373067D-04 -0.55942005D-06  0.15364596D-03  0.13458236D-03
  0.35211359D-04  0.20473308D-04 -0.57481056D-04  0.26913287D-04 -0.16790716D-03
  0.13183119D-04 -0.74999028D-04 -0.44709980D-02 -0.82290231D-02 -0.13316113D-01
 -0.17504403D-01 -0.15013425D-01 -0.51333448D-02  0.56336528D-04  0.25137249D-04
 -0.74230633D-04  0.48982681D-04  0.37738516D-04  0.16569241D-04  0.30174107D-04
  0.23247523D-04  0.10206915D-04 -0.35255370D-05 -0.27162362D-05 -0.11925740D-05
 -0.14454708D-03  0.46605339D-04 -0.36272145D-05  0.30241992D-04  0.51712913D-04
  0.74638675D-04  0.70038501D-04 -0.49292427D-04 -0.48118552D-04 -0.11025648D-04
  0.14347526D+00  0.26407106D+00  0.42731683D+00  0.56171993D+00  0.48178392D+00
  0.16473011D+00 -0.27458859D-02 -0.12252090D-02  0.36180584D-02  0.32463655D-03
  0.25011496D-03  0.10981394D-03  0.61310247D-03  0.47236240D-03  0.20739254D-03
  0.17801406D-03  0.13715024D-03  0.60216341D-04  0.64751726D-03  0.11504588D-05
  0.74087346D-04  0.23512120D-04 -0.15230227D-02 -0.14807094D-02 -0.15348516D-02
  0.54215182D-04  0.22261622D-04  0.50165363D-04
MO    2     MO 0.0        OCC NO =    2.0000000  ORB. ENERGY =  -19.170704
  0.10811023D-04  0.19944226D-04  0.32196166D-04  0.41909841D-04  0.35761743D-04
  0.12347671D-04 -0.24646886D-04 -0.11359727D-04  0.31853861D-04 -0.33623711D-04
 -0.25780529D-04 -0.12866291D-04 -0.73402905D-04 -0.56280692D-04 -0.28088010D-04
 -0.28969810D-04 -0.22212213D-04 -0.11085451D-04 -0.14997316D-03 -0.26581024D-03
 -0.15646725D-03  0.24275585D-06  0.17581473D-04  0.99252135D-04  0.35067294D-04
  0.19290812D-04  0.31267182D-04  0.11458801D-04 -0.80019972D-05 -0.14762122D-04
 -0.23830643D-04 -0.31020416D-04 -0.26469777D-04 -0.91393779D-05 -0.19717688D-05
 -0.90878643D-06  0.25483320D-05  0.79656246D-05  0.61075357D-05  0.30480884D-05
  0.17262672D-04  0.13235922D-04  0.66056529D-05 -0.22446179D-04 -0.17210307D-04
 -0.85891493D-05  0.17981280D-03 -0.30457007D-03  0.13103418D-03 -0.28701152D-04
 -0.19021258D-04 -0.14961590D-03 -0.33113065D-04  0.11284411D-03 -0.49729559D-04
  0.91551245D-05  0.31184102D-05  0.57428130D-05  0.92788212D-05  0.12143982D-04
  0.10402409D-04  0.35785493D-05 -0.61628120D-05 -0.30465913D-05  0.80367125D-05
 -0.24877512D-04 -0.19367541D-04 -0.91963934D-05  0.76020347D-05  0.59183054D-05
  0.28102208D-05  0.81711283D-05  0.63613538D-05  0.30205958D-05 -0.11432915D-04
  0.62425996D-04  0.21516034D-04 -0.37059064D-05  0.32768772D-04 -0.19575715D-04
  0.15834609D-04 -0.49634776D-05 -0.12593395D-04  0.56657196D-05  0.74563559D-05
  0.12647391D-04  0.14398608D-04  0.10890107D-04 -0.12263878D-04  0.18745618D-04
  0.18185833D-04 -0.45671292D-05 -0.77467156D-05 -0.88193619D-05  0.19537139D-04
  0.34955714D-04 -0.16814286D-04 -0.34259843D-05  0.62758852D-05  0.11557567D-04
  0.18673880D-04  0.24440094D-04  0.20935131D-04  0.72019276D-05 -0.37997388D-04
 -0.18784041D-04  0.49551096D-04  0.60407051D-04  0.47027854D-04  0.22330488D-04
  0.12254595D-03  0.95403982D-04  0.45301185D-04  0.24611157D-04  0.19160179D-04
  0.90979308D-05 -0.10566509D-03 -0.22629447D-04 -0.23311706D-03 -0.40136494D-04
 -0.47383762D-05 -0.29286688D-04  0.40228540D-04 -0.10698870D-03 -0.32361329D-04
 -0.50308412D-04 -0.22221813D-04 -0.37692401D-04 -0.42911467D-04 -0.25604450D-03
 -0.14406750D-03 -0.62231271D-04 -0.24045376D-04 -0.12481420D-05 -0.21170851D-05
 -0.24102266D-05 -0.14072063D-04 -0.99214065D-05  0.71805155D-04  0.96648577D-05
 -0.12353015D-05 -0.22749110D-05 -0.36756364D-05 -0.48106179D-05 -0.41207253D-05
 -0.14175773D-05  0.25877187D-04  0.12792409D-04 -0.33745555D-04  0.31902479D-04
  0.24836589D-04  0.11793291D-04 -0.12052139D-03 -0.93827828D-04 -0.44552771D-04
 -0.12799961D-04 -0.99649738D-05 -0.47317220D-05  0.95779845D-04  0.22835011D-04
  0.73691170D-04  0.21729118D-04  0.15696087D-04  0.77957667D-04  0.12887014D-04
 -0.13328097D-03 -0.52775191D-04  0.61977594D-04 -0.14347234D+00 -0.26406570D+00
 -0.42730815D+00 -0.56170852D+00 -0.48177413D+00 -0.16472676D+00  0.27515977D-02
  0.12277575D-02 -0.36255844D-02 -0.28956570D-03 -0.22309476D-03 -0.97950616D-04
  0.59201355D-03  0.45611453D-03  0.20025884D-03  0.16162604D-03  0.12452415D-03
  0.54672810D-04 -0.57187449D-03 -0.17606922D-04  0.59882071D-04  0.14416992D-04
  0.14861177D-02  0.14525800D-02  0.15355752D-02  0.59667920D-04  0.23097072D-04
 -0.36417508D-04  0.47105559D-02  0.86699374D-02  0.14029595D-01  0.18442296D-01
  0.15817850D-01  0.54083915D-02 -0.96722641D-04 -0.43157454D-04  0.12744454D-03
 -0.21539996D-04 -0.16595406D-04 -0.72862769D-05 -0.49857460D-06 -0.38412485D-06
 -0.16865150D-06  0.29112200D-04  0.22429381D-04  0.98477063D-05 -0.11851362D-04
  0.85454760D-05 -0.16519479D-04 -0.14440549D-04 -0.42848090D-04 -0.37930848D-04
 -0.34764053D-04 -0.84615692D-05  0.23428376D-04  0.11693992D-04  0.22235420D-04
  0.40948384D-04  0.66161433D-04  0.86591093D-04  0.74173031D-04  0.25516382D-04
 -0.19620488D-03 -0.96994048D-04  0.25586408D-03 -0.23439671D-03 -0.18248158D-03
 -0.86648710D-04 -0.51574730D-03 -0.40151750D-03 -0.19065471D-03 -0.11439043D-03
 -0.89054779D-04 -0.42286359D-04 -0.28126574D-03  0.35489649D-03  0.58457291D-03
  0.16008402D-03  0.10365539D-04 -0.38548328D-03  0.36212079D-04 -0.85002057D-03
 -0.11795586D-03 -0.38685710D-03 -0.26016826D-01 -0.47884849D-01 -0.77486725D-01
 -0.10185847D+00 -0.87363417D-01 -0.29871036D-01  0.43690664D-03  0.19494689D-03
 -0.57568078D-03  0.19729314D-03  0.15200373D-03  0.66737823D-04  0.81341080D-04
  0.62668917D-04  0.27515030D-04  0.75330001D-04  0.58037705D-04  0.25481679D-04
 -0.36197682D-03  0.10292198D-03 -0.58202384D-04  0.40811871D-04  0.26694915D-03
  0.31548332D-03  0.29359517D-03 -0.15998772D-03 -0.63608805D-04 -0.64403273D-04
  0.81278451D+00  0.14959574D+01  0.24207414D+01  0.31821324D+01  0.27292965D+01
  0.93319281D+00 -0.15572240D-01 -0.69483029D-02  0.20518432D-01  0.17364062D-02
  0.13378074D-02  0.58736951D-03  0.34117632D-02  0.26285796D-02  0.11540880D-02
  0.96056973D-03  0.74006720D-03  0.32492936D-03  0.34472577D-02  0.54570545D-04
  0.37821698D-03  0.10663053D-03 -0.85202048D-02 -0.83060883D-02 -0.86970951D-02
  0.32303839D-03  0.12853794D-03  0.24403426D-03
MO    3     MO 0.0        OCC NO =    2.0000000  ORB. ENERGY =  -19.170487
  0.24578670D-05  0.45342847D-05  0.73197415D-05  0.95281285D-05  0.81303693D-05
  0.28072211D-05 -0.57986212D-05 -0.26725792D-05  0.74941911D-05  0.15729657D-04
  0.12060503D-04  0.60190363D-05  0.17300145D-04  0.13264654D-04  0.66199918D-05
  0.20646306D-04  0.15830278D-04  0.79004181D-05  0.15308210D-04 -0.32385207D-04
  0.17767671D-03  0.47210028D-05  0.18271033D-04  0.11606036D-04  0.11089589D-04
  0.17728140D-04  0.17637258D-04  0.26028897D-05 -0.28443472D-06 -0.52472652D-06
 -0.84707130D-06 -0.11026351D-05 -0.94088057D-06 -0.32486345D-06 -0.14914235D-04
 -0.68739571D-05  0.19275293D-04 -0.76469195D-05 -0.58631728D-05 -0.29261342D-05
 -0.70681663D-04 -0.54194216D-04 -0.27046712D-04 -0.30519271D-04 -0.23400241D-04
 -0.11678360D-04 -0.46954206D-04 -0.30498310D-04 -0.50849066D-03 -0.32136104D-05
 -0.53914001D-04 -0.26255445D-04 -0.18437316D-05 -0.28153071D-03  0.67170796D-04
  0.16415686D-04  0.11497449D-04  0.21173513D-04  0.34210629D-04  0.44774359D-04
  0.38353251D-04  0.13193963D-04 -0.31211131D-04 -0.15429249D-04  0.40701370D-04
  0.17163153D-04  0.13361788D-04  0.63446498D-05  0.23598203D-04  0.18371577D-04
  0.87234748D-05 -0.16595883D-04 -0.12920160D-04 -0.61349488D-05 -0.17633100D-03
 -0.36608457D-04  0.40322378D-04  0.17590938D-04  0.54277357D-04  0.29765778D-04
  0.41458559D-04  0.85424011D-05  0.19069992D-04 -0.22565964D-04  0.13548008D-05
  0.22979986D-05  0.26161902D-05 -0.51537332D-05 -0.14755120D-04 -0.47297882D-05
 -0.12269075D-04  0.58131219D-05  0.98601550D-05  0.11225438D-04  0.55907506D-05
  0.21266096D-04  0.16349827D-04  0.54327040D-05 -0.25656034D-05 -0.47247730D-05
 -0.76339460D-05 -0.99911943D-05 -0.85583533D-05 -0.29441727D-05  0.58218249D-05
  0.28780240D-05 -0.75920429D-05  0.66259313D-05  0.51583933D-05  0.24493876D-05
  0.27490741D-04  0.21401981D-04  0.10162418D-04 -0.12133061D-04 -0.94457814D-05
 -0.44851911D-05  0.10133888D-03  0.20516193D-04  0.83304549D-05  0.12444435D-04
 -0.16234689D-04 -0.22179327D-04  0.40662055D-05 -0.98794176D-06  0.10030669D-04
  0.10124712D-04 -0.30976089D-05 -0.52541310D-05 -0.59816424D-05 -0.84997047D-05
 -0.15185714D-04  0.12838860D-04  0.32076861D-05 -0.16706143D-05 -0.28336781D-05
 -0.32260424D-05  0.33674065D-06  0.31047187D-06  0.74180807D-06 -0.79839055D-05
 -0.42516259D-05 -0.78297244D-05 -0.12650701D-04 -0.16557049D-04 -0.14182596D-04
 -0.48789774D-05 -0.11186901D-03 -0.55302539D-04  0.14588456D-03  0.23668246D-03
  0.18426107D-03  0.87493676D-04  0.91122970D-04  0.70940687D-04  0.33685148D-04
 -0.11595030D-03 -0.90269157D-04 -0.42862989D-04 -0.13268027D-03 -0.76594647D-03
 -0.13312406D-03  0.24350172D-03 -0.90362446D-03  0.12643482D-03 -0.14348545D-03
  0.25388601D-03  0.66089323D-03 -0.38719767D-04  0.23048950D-01  0.42422372D-01
  0.68647406D-01  0.90238937D-01  0.77397412D-01  0.26463490D-01 -0.47573695D-03
 -0.21227290D-03  0.62684472D-03 -0.39938905D-04 -0.30770773D-04 -0.13510027D-04
 -0.92656074D-04 -0.71386510D-04 -0.31342523D-04  0.72208757D-05  0.55632955D-05
  0.24425864D-05 -0.85631480D-04  0.51631796D-04  0.83507086D-04 -0.79045702D-05
 -0.25870142D-03 -0.15878525D-03 -0.25276966D-03  0.36509238D-04  0.13677560D-04
  0.62023888D-05  0.71789685D+00  0.13213134D+01  0.21381346D+01  0.28106377D+01
  0.24106676D+01  0.82424821D+00 -0.13762977D-01 -0.61410137D-02  0.18134496D-01
 -0.37640376D-02 -0.28999881D-02 -0.12732510D-02  0.21732007D-03  0.16743340D-03
  0.73512281D-04  0.12695691D-02  0.97813457D-03  0.42945376D-03  0.31730408D-02
 -0.44150901D-03 -0.85613905D-05  0.20232948D-03 -0.70789614D-02 -0.76282042D-02
 -0.75959193D-02 -0.50974148D-04 -0.48704343D-03 -0.52370834D-04  0.17647014D-04
  0.32498450D-04  0.52508641D-04  0.68722524D-04  0.58867000D-04  0.20250930D-04
  0.23986115D-04  0.11857556D-04 -0.31279473D-04 -0.13659438D-03 -0.10634091D-03
 -0.50494423D-04  0.59577742D-04  0.46382223D-04  0.22023920D-04 -0.10545680D-03
 -0.82099804D-04 -0.38983891D-04 -0.63665581D-04  0.57038724D-03 -0.60045328D-04
  0.17920608D-03  0.55621440D-03 -0.18445349D-04  0.14081389D-03  0.19659320D-03
  0.35285789D-03  0.32710770D-04 -0.40720330D+00 -0.74947146D+00 -0.12127863D+01
 -0.15942415D+01 -0.13673717D+01 -0.46752760D+00  0.77232979D-02  0.34461205D-02
 -0.10176440D-01  0.21517530D-02  0.16578097D-02  0.72786776D-03  0.23744667D-03
  0.18293986D-03  0.80320452D-04  0.63763785D-03  0.49126559D-03  0.21569205D-03
 -0.19979374D-02  0.29012227D-03 -0.40875292D-04  0.15532200D-03  0.41263828D-02
  0.44163157D-02  0.44280871D-02 -0.22681699D-04 -0.30819195D-03  0.10582605D-03
 -0.13144309D-01 -0.24192546D-01 -0.39148106D-01 -0.51461281D-01 -0.44138041D-01
 -0.15091546D-01  0.29019999D-03  0.12948667D-03 -0.38237587D-03  0.13041451D-04
  0.10047735D-04  0.44114969D-05 -0.52343066D-04 -0.40327510D-04 -0.17705949D-04
  0.42174756D-05  0.32493376D-05  0.14266342D-05  0.14371031D-03 -0.21353659D-04
  0.83354192D-04  0.27818130D-05  0.11884994D-03  0.79025941D-04  0.12998912D-03
  0.24695311D-04 -0.79415560D-05 -0.27935648D-05
MO    4     MO 0.0        OCC NO =    2.0000000  ORB. ENERGY =  -19.170483
  0.89036679D-05  0.16425529D-04  0.26515896D-04  0.34515818D-04  0.29452410D-04
  0.10169209D-04 -0.21002870D-04 -0.96802037D-05  0.27144302D-04  0.56992883D-04
  0.43698528D-04  0.21808628D-04 -0.47742376D-05 -0.36605826D-05 -0.18268873D-05
 -0.56985182D-05 -0.43692624D-05 -0.21805681D-05  0.55440171D-04 -0.11725551D-03
 -0.49058180D-04 -0.13045458D-05  0.66193408D-04  0.42040722D-04  0.40173991D-04
 -0.48942779D-05 -0.48684044D-05  0.94243403D-05 -0.10335014D-05 -0.19066082D-05
 -0.30778569D-05 -0.40064551D-05 -0.34187154D-05 -0.11804003D-05 -0.53999382D-04
 -0.24888266D-04  0.69789295D-04 -0.27721401D-04 -0.21255012D-04 -0.10607741D-04
  0.19515786D-04  0.14963467D-04  0.74678187D-05  0.84266131D-05  0.64609924D-05
  0.32244880D-05 -0.16998634D-03 -0.11051392D-03  0.14039334D-03  0.88540869D-06
 -0.19532557D-03 -0.95015512D-04 -0.66916380D-05  0.77727550D-04 -0.18548190D-04
  0.59425956D-04  0.14231977D-04  0.26209376D-04  0.42347211D-04  0.55423395D-04
  0.47475105D-04  0.16331986D-04 -0.40861284D-04 -0.20199810D-04  0.53285804D-04
  0.41620164D-04  0.32401962D-04  0.15385598D-04 -0.14098961D-04 -0.10976266D-04
 -0.52119195D-05 -0.41180729D-05 -0.32059855D-05 -0.15223153D-05 -0.97463609D-04
 -0.21246705D-04  0.51220519D-04  0.51767201D-05  0.59154764D-04  0.65627314D-05
  0.77270004D-04  0.16221229D-04  0.12345980D-04 -0.18018962D-04 -0.98805700D-06
 -0.16759317D-05 -0.19079890D-05 -0.79627221D-05 -0.24074560D-04 -0.93565489D-05
 -0.49646372D-05  0.36861664D-05  0.62524359D-05  0.71181773D-05 -0.72150471D-05
  0.59775987D-05  0.23271615D-05  0.28347775D-05  0.18113976D-04  0.33358400D-04
  0.53898087D-04  0.70541010D-04  0.60424697D-04  0.20786796D-04 -0.51082205D-04
 -0.25252531D-04  0.66614558D-04  0.44525302D-04  0.34663659D-04  0.16459531D-04
 -0.34049814D-08 -0.26508324D-08 -0.12587090D-08  0.12052924D-04  0.93833939D-05
  0.44555673D-05 -0.17411766D-03 -0.37006942D-04 -0.64652846D-04 -0.13469681D-04
  0.78628314D-04  0.20900636D-04  0.87590208D-04 -0.18293469D-04 -0.20380442D-04
 -0.27046845D-04  0.61460023D-05  0.10424783D-04  0.11868247D-04 -0.33234185D-05
  0.16040317D-04 -0.10385566D-04 -0.52187608D-05 -0.15288031D-06 -0.25931394D-06
 -0.29521975D-06 -0.94770237D-05 -0.28237309D-04  0.10452144D-04  0.10557767D-04
  0.27285534D-04  0.50248591D-04  0.81188033D-04  0.10625768D-03  0.91019228D-04
  0.31311669D-04 -0.14040259D-03 -0.69408138D-04  0.18309422D-03  0.12974802D-03
  0.10101090D-03  0.47963550D-04  0.36272283D-04  0.28238552D-04  0.13408663D-04
  0.11572349D-04  0.90092583D-05  0.42779145D-05 -0.34607257D-03 -0.16968964D-03
 -0.10547005D-03  0.58044646D-04 -0.42753416D-03  0.17552418D-03  0.34469641D-04
  0.41818237D-04  0.41774576D-03 -0.10876517D-05  0.12933162D-01  0.23803922D-01
  0.38519239D-01  0.50634618D-01  0.43429018D-01  0.14849119D-01 -0.23013609D-03
 -0.10268627D-03  0.30323394D-03 -0.41417663D-04 -0.31910076D-04 -0.14010242D-04
 -0.52943130D-04 -0.40789828D-04 -0.17908931D-04  0.38617325D-05  0.29752567D-05
  0.13062979D-05  0.13676435D-03  0.44762853D-04 -0.22746323D-04 -0.18634080D-04
 -0.20104549D-03 -0.11154686D-03 -0.16941228D-03  0.12979264D-04  0.38360284D-04
  0.49225813D-05  0.40728877D+00  0.74962877D+00  0.12130408D+01  0.15945761D+01
  0.13676587D+01  0.46762573D+00 -0.79705651D-02 -0.35564506D-02  0.10502246D-01
 -0.21028815D-02 -0.16201568D-02 -0.71133611D-03 -0.98714888D-04 -0.76054500D-04
 -0.33392022D-04  0.88080891D-03  0.67861578D-03  0.29794888D-03  0.14140694D-02
 -0.17316786D-03  0.65405335D-04  0.35722430D-04 -0.37996530D-02 -0.41533933D-02
 -0.40764739D-02 -0.41191692D-04 -0.21404763D-03  0.11870321D-03  0.21238328D-04
  0.39112156D-04  0.63194589D-04  0.82708132D-04  0.70846927D-04  0.24372164D-04
 -0.17791029D-03 -0.87950102D-04  0.23200673D-03  0.23282628D-03  0.18125897D-03
  0.86068172D-04 -0.77857358D-04 -0.60613196D-04 -0.28781289D-04  0.49555198D-04
  0.38579513D-04  0.18318917D-04 -0.36512019D-03 -0.53869313D-03  0.15875839D-03
 -0.17474278D-03 -0.83062658D-03  0.21552068D-03 -0.44002913D-04 -0.16641416D-03
 -0.69758490D-03 -0.20881596D-04  0.71794570D+00  0.13214033D+01  0.21382800D+01
  0.28108290D+01  0.24108317D+01  0.82430429D+00 -0.13903246D-01 -0.62036012D-02
  0.18319317D-01 -0.37363756D-02 -0.28786760D-02 -0.12638938D-02 -0.27242904D-04
 -0.20989189D-04 -0.92153846D-05 -0.14072550D-02 -0.10842141D-02 -0.47602841D-03
  0.28418496D-02 -0.37517717D-03 -0.51792197D-04 -0.13446023D-03 -0.68936089D-02
 -0.74790566D-02 -0.73964989D-02  0.61663993D-04  0.43356862D-03  0.75064246D-04
  0.22917813D-01  0.42181009D-01  0.68256835D-01  0.89725520D-01  0.76957057D-01
  0.26312925D-01 -0.44145138D-03 -0.19697475D-03  0.58166907D-03 -0.56075820D-04
 -0.43203396D-04 -0.18968618D-04  0.92930491D-04  0.71597934D-04  0.31435349D-04
 -0.70271938D-05 -0.54140740D-05 -0.23770701D-05  0.73409275D-04  0.64915355D-04
 -0.23321321D-04  0.20045034D-04 -0.30520080D-03 -0.17712819D-03 -0.27500118D-03
 -0.29913575D-04 -0.39941959D-04  0.73989373D-05
MO    5     MO 0.0        OCC NO =    2.0000000  ORB. ENERGY =  -14.571542
  0.35522427D-06  0.65531942D-06  0.10578887D-05  0.13770568D-05  0.11750451D-05
  0.40571482D-06 -0.83780632D-05 -0.38614417D-05  0.10827885D-04 -0.38372208D-05
 -0.29421376D-05 -0.14683328D-05  0.34919517D-04  0.26774071D-04  0.13362138D-04
  0.53410215D-05  0.40951565D-05  0.20437701D-05  0.14251810D-04  0.23658791D-05
 -0.18701784D-03 -0.15338160D-04 -0.20912282D-04 -0.87757352D-05  0.44877271D-06
 -0.79525628D-04  0.18762376D-04  0.18658361D-05  0.37202258D-05  0.68630902D-05
  0.11079156D-04  0.14421769D-04  0.12306121D-04  0.42490079D-05 -0.19438080D-04