 Default is to use a total of   4 processors:
                                4 via shared-memory
                                1 via Linda
 Entering Link 1 = d:\study\G09W\l1.exe PID=      6596.
  
 Copyright (c) 1988,1990,1992,1993,1995,1998,2003,2009,2013,
            Gaussian, Inc.  All Rights Reserved.
  
 This is part of the Gaussian(R) 09 program.  It is based on
 the Gaussian(R) 03 system (copyright 2003, Gaussian, Inc.),
 the Gaussian(R) 98 system (copyright 1998, Gaussian, Inc.),
 the Gaussian(R) 94 system (copyright 1995, Gaussian, Inc.),
 the Gaussian 92(TM) system (copyright 1992, Gaussian, Inc.),
 the Gaussian 90(TM) system (copyright 1990, Gaussian, Inc.),
 the Gaussian 88(TM) system (copyright 1988, Gaussian, Inc.),
 the Gaussian 86(TM) system (copyright 1986, Carnegie Mellon
 University), and the Gaussian 82(TM) system (copyright 1983,
 Carnegie Mellon University). Gaussian is a federally registered
 trademark of Gaussian, Inc.
  
 This software contains proprietary and confidential information,
 including trade secrets, belonging to Gaussian, Inc.
  
 This software is provided under written license and may be
 used, copied, transmitted, or stored only in accord with that
 written license.
  
 The following legend is applicable only to US Government
 contracts under FAR:
  
                    RESTRICTED RIGHTS LEGEND
  
 Use, reproduction and disclosure by the US Government is
 subject to restrictions as set forth in subparagraphs (a)
 and (c) of the Commercial Computer Software - Restricted
 Rights clause in FAR 52.227-19.
  
 Gaussian, Inc.
 340 Quinnipiac St., Bldg. 40, Wallingford CT 06492
  
  
 ---------------------------------------------------------------
 Warning -- This program may not be used in any manner that
 competes with the business of Gaussian, Inc. or will provide
 assistance to any competitor of Gaussian, Inc.  The licensee
 of this program is prohibited from giving any competitor of
 Gaussian, Inc. access to this program.  By using this program,
 the user acknowledges that Gaussian, Inc. is engaged in the
 business of creating and licensing software in the field of
 computational chemistry and represents and warrants to the
 licensee that it is not a competitor of Gaussian, Inc. and that
 it will not use this program in any manner prohibited above.
 ---------------------------------------------------------------
  

 Cite this work as:
 Gaussian 09, Revision D.01,
 M. J. Frisch, G. W. Trucks, H. B. Schlegel, G. E. Scuseria, 
 M. A. Robb, J. R. Cheeseman, G. Scalmani, V. Barone, B. Mennucci, 
 G. A. Petersson, H. Nakatsuji, M. Caricato, X. Li, H. P. Hratchian, 
 A. F. Izmaylov, J. Bloino, G. Zheng, J. L. Sonnenberg, M. Hada, 
 M. Ehara, K. Toyota, R. Fukuda, J. Hasegawa, M. Ishida, T. Nakajima, 
 Y. Honda, O. Kitao, H. Nakai, T. Vreven, J. A. Montgomery, Jr., 
 J. E. Peralta, F. Ogliaro, M. Bearpark, J. J. Heyd, E. Brothers, 
 K. N. Kudin, V. N. Staroverov, T. Keith, R. Kobayashi, J. Normand, 
 K. Raghavachari, A. Rendell, J. C. Burant, S. S. Iyengar, J. Tomasi, 
 M. Cossi, N. Rega, J. M. Millam, M. Klene, J. E. Knox, J. B. Cross, 
 V. Bakken, C. Adamo, J. Jaramillo, R. Gomperts, R. E. Stratmann, 
 O. Yazyev, A. J. Austin, R. Cammi, C. Pomelli, J. W. Ochterski, 
 R. L. Martin, K. Morokuma, V. G. Zakrzewski, G. A. Voth, 
 P. Salvador, J. J. Dannenberg, S. Dapprich, A. D. Daniels, 
 O. Farkas, J. B. Foresman, J. V. Ortiz, J. Cioslowski, 
 and D. J. Fox, Gaussian, Inc., Wallingford CT, 2013.
 
 ******************************************
 Gaussian 09:  IA32W-G09RevD.01 24-Apr-2013
                02-Jan-2018 
 ******************************************
 --------------------------
 # B3LYP/6-31G* pop=nboread
 --------------------------
 1/38=1/1;
 2/12=2,17=6,18=5,40=1/2;
 3/5=1,6=6,7=1,11=2,16=1,25=1,30=1,74=-5/1,2,3;
 4//1;
 5/5=2,38=5/2;
 6/7=2,8=2,9=2,10=2,28=1,40=2/1,7;
 99/5=1,9=1/99;
 ------------------
 B3LYP/6-31G* opted
 ------------------
 Symbolic Z-matrix:
 Charge =  0 Multiplicity = 1
 C                     0.        0.       -0.56221 
 H                     0.       -0.92445  -1.10111 
 H                     0.        0.92445  -1.10111 
 O                     0.        0.        0.69619 
 
                          Input orientation:                          
 ---------------------------------------------------------------------
 Center     Atomic      Atomic             Coordinates (Angstroms)
 Number     Number       Type             X           Y           Z
 ---------------------------------------------------------------------
      1          6           0        0.000000    0.000000   -0.562211
      2          1           0        0.000000   -0.924448   -1.101105
      3          1           0        0.000000    0.924448   -1.101105
      4          8           0        0.000000    0.000000    0.696189
 ---------------------------------------------------------------------
                    Distance matrix (angstroms):
                    1          2          3          4
     1  C    0.000000
     2  H    1.070052   0.000000
     3  H    1.070052   1.848895   0.000000
     4  O    1.258400   2.021107   2.021107   0.000000
 Stoichiometry    CH2O
 Framework group  C2V[C2(CO),SGV(H2)]
 Deg. of freedom     3
 Full point group                 C2V     NOp   4
 Largest Abelian subgroup         C2V     NOp   4
 Largest concise Abelian subgroup C2      NOp   2
                         Standard orientation:                         
 ---------------------------------------------------------------------
 Center     Atomic      Atomic             Coordinates (Angstroms)
 Number     Number       Type             X           Y           Z
 ---------------------------------------------------------------------
      1          6           0        0.000000    0.000000   -0.561838
      2          1           0        0.000000    0.924448   -1.100733
      3          1           0        0.000000   -0.924448   -1.100733
      4          8           0        0.000000    0.000000    0.696562
 ---------------------------------------------------------------------
 Rotational constants (GHZ):    293.3846535     36.5359393     32.4898904
 Standard basis: 6-31G(d) (6D, 7F)
 There are    18 symmetry adapted cartesian basis functions of A1  symmetry.
 There are     2 symmetry adapted cartesian basis functions of A2  symmetry.
 There are     6 symmetry adapted cartesian basis functions of B1  symmetry.
 There are     8 symmetry adapted cartesian basis functions of B2  symmetry.
 There are    18 symmetry adapted basis functions of A1  symmetry.
 There are     2 symmetry adapted basis functions of A2  symmetry.
 There are     6 symmetry adapted basis functions of B1  symmetry.
 There are     8 symmetry adapted basis functions of B2  symmetry.
    34 basis functions,    64 primitive gaussians,    34 cartesian basis functions
     8 alpha electrons        8 beta electrons
       nuclear repulsion energy        30.5945943065 Hartrees.
 NAtoms=    4 NActive=    4 NUniq=    3 SFac= 1.78D+00 NAtFMM=   60 NAOKFM=F Big=F
 Integral buffers will be    262144 words long.
 Raffenetti 2 integral format.
 Two-electron integral symmetry is turned on.
 One-electron integrals computed using PRISM.
 NBasis=    34 RedAO= T EigKep=  1.99D-02  NBF=    18     2     6     8
 NBsUse=    34 1.00D-06 EigRej= -1.00D+00 NBFU=    18     2     6     8
 ExpMin= 1.61D-01 ExpMax= 5.48D+03 ExpMxC= 8.25D+02 IAcc=1 IRadAn=         1 AccDes= 0.00D+00
 Harris functional with IExCor=  402 and IRadAn=       1 diagonalized for initial guess.
 HarFok:  IExCor=  402 AccDes= 0.00D+00 IRadAn=         1 IDoV= 1 UseB2=F ITyADJ=14
 ICtDFT=  3500011 ScaDFX=  1.000000  1.000000  1.000000  1.000000
 FoFCou: FMM=F IPFlag=           0 FMFlag=      100000 FMFlg1=           0
         NFxFlg=           0 DoJE=T BraDBF=F KetDBF=T FulRan=T
         wScrn=  0.000000 ICntrl=     500 IOpCl=  0 I1Cent=   200000004 NGrid=           0
         NMat0=    1 NMatS0=      1 NMatT0=    0 NMatD0=    1 NMtDS0=    0 NMtDT0=    0
 Petite list used in FoFCou.
 Initial guess orbital symmetries:
       Occupied  (A1) (A1) (A1) (A1) (B2) (A1) (B1) (B2)
       Virtual   (B1) (A1) (B2) (A1) (B1) (A1) (B2) (A1) (A1) (B2)
                 (A1) (B1) (B2) (A1) (B1) (A2) (A1) (B2) (A2) (A1)
                 (A1) (B1) (B2) (A1) (A1) (A1)
 The electronic state of the initial guess is 1-A1.
 Keep R1 ints in memory in symmetry-blocked form, NReq=1057411.
 Requested convergence on RMS density matrix=1.00D-08 within 128 cycles.
 Requested convergence on MAX density matrix=1.00D-06.
 Requested convergence on             energy=1.00D-06.
 No special actions if energy rises.
 Integral accuracy reduced to 1.0D-05 until final iterations.
 Initial convergence to 1.0D-05 achieved.  Increase integral accuracy.
 SCF Done:  E(RB3LYP) =  -114.495128016     A.U. after   11 cycles
            NFock= 11  Conv=0.46D-08     -V/T= 2.0094

 **********************************************************************

            Population analysis using the SCF density.

 **********************************************************************

 Orbital symmetries:
       Occupied  (A1) (A1) (A1) (A1) (B2) (A1) (B1) (B2)
       Virtual   (B1) (A1) (B2) (A1) (B1) (A1) (B2) (A1) (B2) (A1)
                 (A1) (B1) (B2) (A1) (B1) (A2) (A1) (B2) (A2) (A1)
                 (A1) (B1) (B2) (A1) (A1) (A1)
 The electronic state is 1-A1.
 Alpha  occ. eigenvalues --  -19.16710 -10.28624  -1.03074  -0.65129  -0.50131
 Alpha  occ. eigenvalues --   -0.43818  -0.38077  -0.26811
 Alpha virt. eigenvalues --   -0.05469   0.11015   0.18454   0.21073   0.51205
 Alpha virt. eigenvalues --    0.58673   0.63118   0.65016   0.84576   0.85641
 Alpha virt. eigenvalues --    0.91176   0.96124   1.06009   1.36178   1.48838
 Alpha virt. eigenvalues --    1.51855   1.71738   1.86102   1.91307   2.11545
 Alpha virt. eigenvalues --    2.23614   2.49008   2.60584   2.86001   3.64998
 Alpha virt. eigenvalues --    4.06974
          Condensed to atoms (all electrons):
               1          2          3          4
     1  C    4.737855   0.336372   0.336372   0.520237
     2  H    0.336372   0.664780  -0.088911  -0.053473
     3  H    0.336372  -0.088911   0.664780  -0.053473
     4  O    0.520237  -0.053473  -0.053473   7.938339
 Mulliken charges:
               1
     1  C    0.069164
     2  H    0.141233
     3  H    0.141233
     4  O   -0.351629
 Sum of Mulliken charges =   0.00000
 Mulliken charges with hydrogens summed into heavy atoms:
               1
     1  C    0.351629
     4  O   -0.351629
 Electronic spatial extent (au):  <R**2>=             61.0655
 Charge=              0.0000 electrons
 Dipole moment (field-independent basis, Debye):
    X=              0.0000    Y=              0.0000    Z=             -2.4259  Tot=              2.4259
 Quadrupole moment (field-independent basis, Debye-Ang):
   XX=            -11.4464   YY=            -11.3127   ZZ=            -11.7860
   XY=              0.0000   XZ=              0.0000   YZ=              0.0000
 Traceless Quadrupole moment (field-independent basis, Debye-Ang):
   XX=              0.0686   YY=              0.2023   ZZ=             -0.2709
   XY=              0.0000   XZ=              0.0000   YZ=              0.0000
 Octapole moment (field-independent basis, Debye-Ang**2):
  XXX=              0.0000  YYY=              0.0000  ZZZ=              0.7934  XYY=              0.0000
  XXY=              0.0000  XXZ=              0.8047  XZZ=              0.0000  YZZ=              0.0000
  YYZ=             -0.3031  XYZ=              0.0000
 Hexadecapole moment (field-independent basis, Debye-Ang**3):
 XXXX=             -9.2996 YYYY=            -16.8314 ZZZZ=            -45.0545 XXXY=              0.0000
 XXXZ=              0.0000 YYYX=              0.0000 YYYZ=              0.0000 ZZZX=              0.0000
 ZZZY=              0.0000 XXYY=             -4.5841 XXZZ=             -9.0127 YYZZ=             -9.9800
 XXYZ=              0.0000 YYXZ=              0.0000 ZZXY=              0.0000
 N-N= 3.059459430654D+01 E-N=-3.296181698360D+02  KE= 1.134255504834D+02
 Symmetry A1   KE= 1.030318031735D+02
 Symmetry A2   KE= 7.008247060226D-35
 Symmetry B1   KE= 3.582376966511D+00
 Symmetry B2   KE= 6.811370343484D+00
 ******************************Gaussian NBO Version 3.1******************************
             N A T U R A L   A T O M I C   O R B I T A L   A N D
          N A T U R A L   B O N D   O R B I T A L   A N A L Y S I S
 ******************************Gaussian NBO Version 3.1******************************

       /RESON  / : Allow strongly delocalized NBO set
       /DMNAO  / : Print the NAO density matrix

 Analyzing the SCF density

 Job title: B3LYP/6-31G* opted                                              

 Storage needed:      3688 in NPA,      4757 in NBO ( 183500733 available)


 NATURAL POPULATIONS:  Natural atomic orbital occupancies 
                                                          
   NAO  Atom  No  lang   Type(AO)    Occupancy      Energy
 ----------------------------------------------------------
     1    C    1  S      Cor( 1S)     1.99970     -10.18034
     2    C    1  S      Val( 2S)     1.06277      -0.28628
     3    C    1  S      Ryd( 3S)     0.00525       0.96124
     4    C    1  S      Ryd( 4S)     0.00006       3.74174
     5    C    1  px     Val( 2p)     0.71602      -0.15249
     6    C    1  px     Ryd( 3p)     0.00235       0.50127
     7    C    1  py     Val( 2p)     1.15610      -0.05944
     8    C    1  py     Ryd( 3p)     0.00016       0.66830
     9    C    1  pz     Val( 2p)     0.83359      -0.03237
    10    C    1  pz     Ryd( 3p)     0.01018       0.49910
    11    C    1  dxy    Ryd( 3d)     0.00000       1.62112
    12    C    1  dxz    Ryd( 3d)     0.00180       1.92093
    13    C    1  dyz    Ryd( 3d)     0.00429       2.23599
    14    C    1  dx2y2  Ryd( 3d)     0.00064       2.01686
    15    C    1  dz2    Ryd( 3d)     0.00148       2.22490

    16    H    2  S      Val( 1S)     0.85048       0.03032
    17    H    2  S      Ryd( 2S)     0.00317       0.58181

    18    H    3  S      Val( 1S)     0.85048       0.03032
    19    H    3  S      Ryd( 2S)     0.00317       0.58181

    20    O    4  S      Cor( 1S)     1.99986     -18.93979
    21    O    4  S      Val( 2S)     1.74766      -0.91734
    22    O    4  S      Ryd( 3S)     0.00255       1.30466
    23    O    4  S      Ryd( 4S)     0.00000       3.49001
    24    O    4  px     Val( 2p)     1.27728      -0.25427
    25    O    4  px     Ryd( 3p)     0.00007       0.95617
    26    O    4  py     Val( 2p)     1.91263      -0.27494
    27    O    4  py     Ryd( 3p)     0.00358       1.05810
    28    O    4  pz     Val( 2p)     1.54876      -0.29984
    29    O    4  pz     Ryd( 3p)     0.00042       1.05025
    30    O    4  dxy    Ryd( 3d)     0.00000       1.81051
    31    O    4  dxz    Ryd( 3d)     0.00248       2.04468
    32    O    4  dyz    Ryd( 3d)     0.00187       2.11873
    33    O    4  dx2y2  Ryd( 3d)     0.00003       1.81797
    34    O    4  dz2    Ryd( 3d)     0.00112       2.76015


 Summary of Natural Population Analysis:                  
                                                          
                                       Natural Population 
                Natural  -----------------------------------------------
    Atom  No    Charge         Core      Valence    Rydberg      Total
 -----------------------------------------------------------------------
      C    1    0.20561      1.99970     3.76847    0.02622     5.79439
      H    2    0.14635      0.00000     0.85048    0.00317     0.85365
      H    3    0.14635      0.00000     0.85048    0.00317     0.85365
      O    4   -0.49831      1.99986     6.48634    0.01212     8.49831
 =======================================================================
   * Total *    0.00000      3.99956    11.95577    0.04467    16.00000

                                 Natural Population      
 --------------------------------------------------------
   Core                       3.99956 ( 99.9890% of   4)
   Valence                   11.95577 ( 99.6314% of  12)
   Natural Minimal Basis     15.95533 ( 99.7208% of  16)
   Natural Rydberg Basis      0.04467 (  0.2792% of  16)
 --------------------------------------------------------

    Atom  No          Natural Electron Configuration
 ----------------------------------------------------------------------------
      C    1      [core]2S( 1.06)2p( 2.71)3S( 0.01)3p( 0.01)3d( 0.01)
      H    2            1S( 0.85)
      H    3            1S( 0.85)
      O    4      [core]2S( 1.75)2p( 4.74)3d( 0.01)


 NAO density matrix:                                                           

          NAO        1       2       3       4       5       6       7       8
      ---------- ------- ------- ------- ------- ------- ------- ------- -------
   1.  C 1 (S)    1.9997  0.0000  0.0000  0.0000  0.0000  0.0000  0.0000  0.0000
   2.  C 1 (S)    0.0000  1.0628  0.0000  0.0000  0.0000  0.0000  0.0000  0.0000
   3.  C 1 (S)    0.0000  0.0000  0.0052  0.0000  0.0000  0.0000  0.0000  0.0000
   4.  C 1 (S)    0.0000  0.0000  0.0000  0.0001  0.0000  0.0000  0.0000  0.0000
   5.  C 1 (px)   0.0000  0.0000  0.0000  0.0000  0.7160 -0.0410  0.0000  0.0000
   6.  C 1 (px)   0.0000  0.0000  0.0000  0.0000 -0.0410  0.0023  0.0000  0.0000
   7.  C 1 (py)   0.0000  0.0000  0.0000  0.0000  0.0000  0.0000  1.1561 -0.0094
   8.  C 1 (py)   0.0000  0.0000  0.0000  0.0000  0.0000  0.0000 -0.0094  0.0002
   9.  C 1 (pz)   0.0056 -0.2422 -0.0516 -0.0041  0.0000  0.0000  0.0000  0.0000
  10.  C 1 (pz)  -0.0070  0.0336 -0.0068  0.0001  0.0000  0.0000  0.0000  0.0000
  11.  C 1 (d1)   0.0000  0.0000  0.0000  0.0000  0.0000  0.0000  0.0000  0.0000
  12.  C 1 (d2)   0.0000  0.0000  0.0000  0.0000  0.0359 -0.0021  0.0000  0.0000
  13.  C 1 (d3)   0.0000  0.0000  0.0000  0.0000  0.0000  0.0000 -0.0281 -0.0003
  14.  C 1 (d4)   0.0023 -0.0220 -0.0008 -0.0001  0.0000  0.0000  0.0000  0.0000
  15.  C 1 (d5)  -0.0016  0.0092 -0.0021 -0.0002  0.0000  0.0000  0.0000  0.0000
  16.  H 2 (S)    0.0030  0.5751  0.0184  0.0010  0.0000  0.0000  0.6728 -0.0030
  17.  H 2 (S)   -0.0136  0.0203 -0.0007  0.0001  0.0000  0.0000  0.0044 -0.0005
  18.  H 3 (S)    0.0030  0.5751  0.0184  0.0010  0.0000  0.0000 -0.6728  0.0030
  19.  H 3 (S)   -0.0136  0.0203 -0.0007  0.0001  0.0000  0.0000 -0.0044  0.0005
  20.  O 4 (S)   -0.0001 -0.0017  0.0065  0.0004  0.0000  0.0000  0.0000  0.0000
  21.  O 4 (S)   -0.0021  0.2869  0.0103 -0.0103  0.0000  0.0000  0.0000  0.0000
  22.  O 4 (S)    0.0040 -0.0127  0.0035  0.0000  0.0000  0.0000  0.0000  0.0000
  23.  O 4 (S)    0.0005 -0.0016  0.0000  0.0000  0.0000  0.0000  0.0000  0.0000
  24.  O 4 (px)   0.0000  0.0000  0.0000  0.0000  0.9563 -0.0548  0.0000  0.0000
  25.  O 4 (px)   0.0000  0.0000  0.0000  0.0000 -0.0072  0.0004  0.0000  0.0000
  26.  O 4 (py)   0.0000  0.0000  0.0000  0.0000  0.0000  0.0000  0.2566 -0.0149
  27.  O 4 (py)   0.0000  0.0000  0.0000  0.0000  0.0000  0.0000 -0.0573  0.0002
  28.  O 4 (pz)   0.0012 -0.4367  0.0831 -0.0018  0.0000  0.0000  0.0000  0.0000
  29.  O 4 (pz)  -0.0095 -0.0023 -0.0011 -0.0001  0.0000  0.0000  0.0000  0.0000
  30.  O 4 (d1)   0.0000  0.0000  0.0000  0.0000  0.0000  0.0000  0.0000  0.0000
  31.  O 4 (d2)   0.0000  0.0000  0.0000  0.0000 -0.0421  0.0024  0.0000  0.0000
  32.  O 4 (d3)   0.0000  0.0000  0.0000  0.0000  0.0000  0.0000 -0.0140  0.0005
  33.  O 4 (d4)   0.0000  0.0002  0.0000  0.0000  0.0000  0.0000  0.0000  0.0000
  34.  O 4 (d5)  -0.0033  0.0144 -0.0022  0.0000  0.0000  0.0000  0.0000  0.0000

          NAO        9      10      11      12      13      14      15      16
      ---------- ------- ------- ------- ------- ------- ------- ------- -------
   1.  C 1 (S)    0.0056 -0.0070  0.0000  0.0000  0.0000  0.0023 -0.0016  0.0030
   2.  C 1 (S)   -0.2422  0.0336  0.0000  0.0000  0.0000 -0.0220  0.0092  0.5751
   3.  C 1 (S)   -0.0516 -0.0068  0.0000  0.0000  0.0000 -0.0008 -0.0021  0.0184
   4.  C 1 (S)   -0.0041  0.0001  0.0000  0.0000  0.0000 -0.0001 -0.0002  0.0010
   5.  C 1 (px)   0.0000  0.0000  0.0000  0.0359  0.0000  0.0000  0.0000  0.0000
   6.  C 1 (px)   0.0000  0.0000  0.0000 -0.0021  0.0000  0.0000  0.0000  0.0000
   7.  C 1 (py)   0.0000  0.0000  0.0000  0.0000 -0.0281  0.0000  0.0000  0.6728
   8.  C 1 (py)   0.0000  0.0000  0.0000  0.0000 -0.0003  0.0000  0.0000 -0.0030
   9.  C 1 (pz)   0.8336  0.0504  0.0000  0.0000  0.0000  0.0168  0.0307 -0.3789
  10.  C 1 (pz)   0.0504  0.0102  0.0000  0.0000  0.0000  0.0002  0.0026 -0.0035
  11.  C 1 (d1)   0.0000  0.0000  0.0000  0.0000  0.0000  0.0000  0.0000  0.0000
  12.  C 1 (d2)   0.0000  0.0000  0.0000  0.0018  0.0000  0.0000  0.0000  0.0000
  13.  C 1 (d3)   0.0000  0.0000  0.0000  0.0000  0.0043  0.0000  0.0000 -0.0319
  14.  C 1 (d4)   0.0168  0.0002  0.0000  0.0000  0.0000  0.0006  0.0003 -0.0156
  15.  C 1 (d5)   0.0307  0.0026  0.0000  0.0000  0.0000  0.0003  0.0015 -0.0054
  16.  H 2 (S)   -0.3789 -0.0035  0.0000  0.0000 -0.0319 -0.0156 -0.0054  0.8505
  17.  H 2 (S)   -0.0044  0.0017  0.0000  0.0000  0.0029 -0.0004  0.0002  0.0000
  18.  H 3 (S)   -0.3789 -0.0035  0.0000  0.0000  0.0319 -0.0156 -0.0054 -0.0660
  19.  H 3 (S)   -0.0044  0.0017  0.0000  0.0000 -0.0029 -0.0004  0.0002  0.0204
  20.  O 4 (S)    0.0013 -0.0140  0.0000  0.0000  0.0000 -0.0003 -0.0046  0.0017
  21.  O 4 (S)    0.4982 -0.0257  0.0000  0.0000  0.0000  0.0031  0.0288  0.0277
  22.  O 4 (S)   -0.0334 -0.0049  0.0000  0.0000  0.0000 -0.0003 -0.0016  0.0059
  23.  O 4 (S)    0.0009  0.0000  0.0000  0.0000  0.0000  0.0000  0.0000 -0.0010
  24.  O 4 (px)   0.0000  0.0000  0.0000  0.0480  0.0000  0.0000  0.0000  0.0000
  25.  O 4 (px)   0.0000  0.0000  0.0000 -0.0004  0.0000  0.0000  0.0000  0.0000
  26.  O 4 (py)   0.0000  0.0000  0.0000  0.0000  0.0756  0.0000  0.0000 -0.2023
  27.  O 4 (py)   0.0000  0.0000  0.0000  0.0000  0.0030  0.0000  0.0000 -0.0404
  28.  O 4 (pz)  -0.6083 -0.1248  0.0000  0.0000  0.0000 -0.0014 -0.0317  0.0284
  29.  O 4 (pz)   0.0174  0.0012  0.0000  0.0000  0.0000  0.0003  0.0007 -0.0066
  30.  O 4 (d1)   0.0000  0.0000  0.0000  0.0000  0.0000  0.0000  0.0000  0.0000
  31.  O 4 (d2)   0.0000  0.0000  0.0000 -0.0021  0.0000  0.0000  0.0000  0.0000
  32.  O 4 (d3)   0.0000  0.0000  0.0000  0.0000 -0.0021  0.0000  0.0000  0.0025
  33.  O 4 (d4)   0.0033  0.0000  0.0000  0.0000  0.0000  0.0000  0.0002 -0.0007
  34.  O 4 (d5)   0.0208  0.0032  0.0000  0.0000  0.0000  0.0001  0.0011 -0.0005

          NAO       17      18      19      20      21      22      23      24
      ---------- ------- ------- ------- ------- ------- ------- ------- -------
   1.  C 1 (S)   -0.0136  0.0030 -0.0136 -0.0001 -0.0021  0.0040  0.0005  0.0000
   2.  C 1 (S)    0.0203  0.5751  0.0203 -0.0017  0.2869 -0.0127 -0.0016  0.0000
   3.  C 1 (S)   -0.0007  0.0184 -0.0007  0.0065  0.0103  0.0035  0.0000  0.0000
   4.  C 1 (S)    0.0001  0.0010  0.0001  0.0004 -0.0103  0.0000  0.0000  0.0000
   5.  C 1 (px)   0.0000  0.0000  0.0000  0.0000  0.0000  0.0000  0.0000  0.9563
   6.  C 1 (px)   0.0000  0.0000  0.0000  0.0000  0.0000  0.0000  0.0000 -0.0548
   7.  C 1 (py)   0.0044 -0.6728 -0.0044  0.0000  0.0000  0.0000  0.0000  0.0000
   8.  C 1 (py)  -0.0005  0.0030  0.0005  0.0000  0.0000  0.0000  0.0000  0.0000
   9.  C 1 (pz)  -0.0044 -0.3789 -0.0044  0.0013  0.4982 -0.0334  0.0009  0.0000
  10.  C 1 (pz)   0.0017 -0.0035  0.0017 -0.0140 -0.0257 -0.0049  0.0000  0.0000
  11.  C 1 (d1)   0.0000  0.0000  0.0000  0.0000  0.0000  0.0000  0.0000  0.0000
  12.  C 1 (d2)   0.0000  0.0000  0.0000  0.0000  0.0000  0.0000  0.0000  0.0480
  13.  C 1 (d3)   0.0029  0.0319 -0.0029  0.0000  0.0000  0.0000  0.0000  0.0000
  14.  C 1 (d4)  -0.0004 -0.0156 -0.0004 -0.0003  0.0031 -0.0003  0.0000  0.0000
  15.  C 1 (d5)   0.0002 -0.0054  0.0002 -0.0046  0.0288 -0.0016  0.0000  0.0000
  16.  H 2 (S)    0.0000 -0.0660  0.0204  0.0017  0.0277  0.0059 -0.0010  0.0000
  17.  H 2 (S)    0.0032  0.0204 -0.0018  0.0003 -0.0112 -0.0007  0.0000  0.0000
  18.  H 3 (S)    0.0204  0.8505  0.0000  0.0017  0.0277  0.0059 -0.0010  0.0000
  19.  H 3 (S)   -0.0018  0.0000  0.0032  0.0003 -0.0112 -0.0007  0.0000  0.0000
  20.  O 4 (S)    0.0003  0.0017  0.0003  1.9999  0.0000  0.0000  0.0000  0.0000
  21.  O 4 (S)   -0.0112  0.0277 -0.0112  0.0000  1.7477  0.0000  0.0000  0.0000
  22.  O 4 (S)   -0.0007  0.0059 -0.0007  0.0000  0.0000  0.0025  0.0000  0.0000
  23.  O 4 (S)    0.0000 -0.0010  0.0000  0.0000  0.0000  0.0000  0.0000  0.0000
  24.  O 4 (px)   0.0000  0.0000  0.0000  0.0000  0.0000  0.0000  0.0000  1.2773
  25.  O 4 (px)   0.0000  0.0000  0.0000  0.0000  0.0000  0.0000  0.0000 -0.0096
  26.  O 4 (py)   0.0683  0.2023 -0.0683  0.0000  0.0000  0.0000  0.0000  0.0000
  27.  O 4 (py)   0.0011  0.0404 -0.0011  0.0000  0.0000  0.0000  0.0000  0.0000
  28.  O 4 (pz)  -0.0214  0.0284 -0.0214 -0.0016  0.3267  0.0607  0.0003  0.0000
  29.  O 4 (pz)   0.0000 -0.0066  0.0000  0.0002  0.0112 -0.0008  0.0000  0.0000
  30.  O 4 (d1)   0.0000  0.0000  0.0000  0.0000  0.0000  0.0000  0.0000  0.0000
  31.  O 4 (d2)   0.0000  0.0000  0.0000  0.0000  0.0000  0.0000  0.0000 -0.0562
  32.  O 4 (d3)  -0.0021 -0.0025  0.0021  0.0000  0.0000  0.0000  0.0000  0.0000
  33.  O 4 (d4)  -0.0001 -0.0007 -0.0001 -0.0009  0.0073  0.0000  0.0000  0.0000
  34.  O 4 (d5)   0.0005 -0.0005  0.0005 -0.0014  0.0066 -0.0016  0.0000  0.0000

          NAO       25      26      27      28      29      30      31      32
      ---------- ------- ------- ------- ------- ------- ------- ------- -------
   1.  C 1 (S)    0.0000  0.0000  0.0000  0.0012 -0.0095  0.0000  0.0000  0.0000
   2.  C 1 (S)    0.0000  0.0000  0.0000 -0.4367 -0.0023  0.0000  0.0000  0.0000
   3.  C 1 (S)    0.0000  0.0000  0.0000  0.0831 -0.0011  0.0000  0.0000  0.0000
   4.  C 1 (S)    0.0000  0.0000  0.0000 -0.0018 -0.0001  0.0000  0.0000  0.0000
   5.  C 1 (px)  -0.0072  0.0000  0.0000  0.0000  0.0000  0.0000 -0.0421  0.0000
   6.  C 1 (px)   0.0004  0.0000  0.0000  0.0000  0.0000  0.0000  0.0024  0.0000
   7.  C 1 (py)   0.0000  0.2566 -0.0573  0.0000  0.0000  0.0000  0.0000 -0.0140
   8.  C 1 (py)   0.0000 -0.0149  0.0002  0.0000  0.0000  0.0000  0.0000  0.0005
   9.  C 1 (pz)   0.0000  0.0000  0.0000 -0.6083  0.0174  0.0000  0.0000  0.0000
  10.  C 1 (pz)   0.0000  0.0000  0.0000 -0.1248  0.0012  0.0000  0.0000  0.0000
  11.  C 1 (d1)   0.0000  0.0000  0.0000  0.0000  0.0000  0.0000  0.0000  0.0000
  12.  C 1 (d2)  -0.0004  0.0000  0.0000  0.0000  0.0000  0.0000 -0.0021  0.0000
  13.  C 1 (d3)   0.0000  0.0756  0.0030  0.0000  0.0000  0.0000  0.0000 -0.0021
  14.  C 1 (d4)   0.0000  0.0000  0.0000 -0.0014  0.0003  0.0000  0.0000  0.0000
  15.  C 1 (d5)   0.0000  0.0000  0.0000 -0.0317  0.0007  0.0000  0.0000  0.0000
  16.  H 2 (S)    0.0000 -0.2023 -0.0404  0.0284 -0.0066  0.0000  0.0000  0.0025
  17.  H 2 (S)    0.0000  0.0683  0.0011 -0.0214  0.0000  0.0000  0.0000 -0.0021
  18.  H 3 (S)    0.0000  0.2023  0.0404  0.0284 -0.0066  0.0000  0.0000 -0.0025
  19.  H 3 (S)    0.0000 -0.0683 -0.0011 -0.0214  0.0000  0.0000  0.0000  0.0021
  20.  O 4 (S)    0.0000  0.0000  0.0000 -0.0016  0.0002  0.0000  0.0000  0.0000
  21.  O 4 (S)    0.0000  0.0000  0.0000  0.3267  0.0112  0.0000  0.0000  0.0000
  22.  O 4 (S)    0.0000  0.0000  0.0000  0.0607 -0.0008  0.0000  0.0000  0.0000
  23.  O 4 (S)    0.0000  0.0000  0.0000  0.0003  0.0000  0.0000  0.0000  0.0000
  24.  O 4 (px)  -0.0096  0.0000  0.0000  0.0000  0.0000  0.0000 -0.0562  0.0000
  25.  O 4 (px)   0.0001  0.0000  0.0000  0.0000  0.0000  0.0000  0.0004  0.0000
  26.  O 4 (py)   0.0000  1.9126  0.0243  0.0000  0.0000  0.0000  0.0000 -0.0593
  27.  O 4 (py)   0.0000  0.0243  0.0036  0.0000  0.0000  0.0000  0.0000 -0.0004
  28.  O 4 (pz)   0.0000  0.0000  0.0000  1.5488 -0.0147  0.0000  0.0000  0.0000
  29.  O 4 (pz)   0.0000  0.0000  0.0000 -0.0147  0.0004  0.0000  0.0000  0.0000
  30.  O 4 (d1)   0.0000  0.0000  0.0000  0.0000  0.0000  0.0000  0.0000  0.0000
  31.  O 4 (d2)   0.0004  0.0000  0.0000  0.0000  0.0000  0.0000  0.0025  0.0000
  32.  O 4 (d3)   0.0000 -0.0593 -0.0004  0.0000  0.0000  0.0000  0.0000  0.0019
  33.  O 4 (d4)   0.0000  0.0000  0.0000  0.0005  0.0001  0.0000  0.0000  0.0000
  34.  O 4 (d5)   0.0000  0.0000  0.0000 -0.0390  0.0005  0.0000  0.0000  0.0000

          NAO       33      34
      ---------- ------- -------
   1.  C 1 (S)    0.0000 -0.0033
   2.  C 1 (S)    0.0002  0.0144
   3.  C 1 (S)    0.0000 -0.0022
   4.  C 1 (S)    0.0000  0.0000
   5.  C 1 (px)   0.0000  0.0000
   6.  C 1 (px)   0.0000  0.0000
   7.  C 1 (py)   0.0000  0.0000
   8.  C 1 (py)   0.0000  0.0000
   9.  C 1 (pz)   0.0033  0.0208
  10.  C 1 (pz)   0.0000  0.0032
  11.  C 1 (d1)   0.0000  0.0000
  12.  C 1 (d2)   0.0000  0.0000
  13.  C 1 (d3)   0.0000  0.0000
  14.  C 1 (d4)   0.0000  0.0001
  15.  C 1 (d5)   0.0002  0.0011
  16.  H 2 (S)   -0.0007 -0.0005
  17.  H 2 (S)   -0.0001  0.0005
  18.  H 3 (S)   -0.0007 -0.0005
  19.  H 3 (S)   -0.0001  0.0005
  20.  O 4 (S)   -0.0009 -0.0014
  21.  O 4 (S)    0.0073  0.0066
  22.  O 4 (S)    0.0000 -0.0016
  23.  O 4 (S)    0.0000  0.0000
  24.  O 4 (px)   0.0000  0.0000
  25.  O 4 (px)   0.0000  0.0000
  26.  O 4 (py)   0.0000  0.0000
  27.  O 4 (py)   0.0000  0.0000
  28.  O 4 (pz)   0.0005 -0.0390
  29.  O 4 (pz)   0.0001  0.0005
  30.  O 4 (d1)   0.0000  0.0000
  31.  O 4 (d2)   0.0000  0.0000
  32.  O 4 (d3)   0.0000  0.0000
  33.  O 4 (d4)   0.0000  0.0001
  34.  O 4 (d5)   0.0001  0.0011


 NATURAL BOND ORBITAL ANALYSIS:

                       Occupancies       Lewis Structure    Low   High
           Occ.    -------------------  -----------------   occ   occ
  Cycle   Thresh.   Lewis   Non-Lewis     CR  BD  3C  LP    (L)   (NL)   Dev
 =============================================================================
   1(1)    1.90    15.89857   0.10143      2   4   0   2     0      0    0.05
 -----------------------------------------------------------------------------

 Structure accepted: No low occupancy Lewis orbitals

 --------------------------------------------------------
   Core                      3.99956 ( 99.989% of   4)
   Valence Lewis            11.89901 ( 99.158% of  12)
  ==================       ============================
   Total Lewis              15.89857 ( 99.366% of  16)
  -----------------------------------------------------
   Valence non-Lewis         0.08095 (  0.506% of  16)
   Rydberg non-Lewis         0.02047 (  0.128% of  16)
  ==================       ============================
   Total non-Lewis           0.10143 (  0.634% of  16)
 --------------------------------------------------------


       (Occupancy)   Bond orbital/ Coefficients/ Hybrids
 ---------------------------------------------------------------------------------
     1. (1.99694) BD ( 1) C   1 - H   2  
                ( 58.60%)   0.7655* C   1 s( 34.73%)p 1.88( 65.19%)d 0.00(  0.09%)
                                            0.0000  0.5890  0.0178  0.0012  0.0000
                                            0.0000  0.7067 -0.0046 -0.3904 -0.0018
                                            0.0000  0.0000 -0.0241 -0.0161 -0.0057
                ( 41.40%)   0.6434* H   2 s(100.00%)
                                            0.9999  0.0103
     2. (1.99694) BD ( 1) C   1 - H   3  
                ( 58.60%)   0.7655* C   1 s( 34.73%)p 1.88( 65.19%)d 0.00(  0.09%)
                                            0.0000  0.5890  0.0178  0.0012  0.0000
                                            0.0000 -0.7067  0.0046 -0.3904 -0.0018
                                            0.0000  0.0000  0.0241 -0.0161 -0.0057
                ( 41.40%)   0.6434* H   3 s(100.00%)
                                            0.9999  0.0103
     3. (2.00000) BD ( 1) C   1 - O   4  
                ( 36.01%)   0.6001* C   1 s(  0.00%)p 1.00( 99.75%)d 0.00(  0.25%)
                                            0.0000  0.0000  0.0000  0.0000  0.9971
                                           -0.0571  0.0000  0.0000  0.0000  0.0000
                                            0.0000  0.0501  0.0000  0.0000  0.0000
                ( 63.99%)   0.7999* O   4 s(  0.00%)p 1.00( 99.81%)d 0.00(  0.19%)
                                            0.0000  0.0000  0.0000  0.0000  0.9990
                                           -0.0075  0.0000  0.0000  0.0000  0.0000
                                            0.0000 -0.0440  0.0000  0.0000  0.0000
     4. (1.99980) BD ( 2) C   1 - O   4  
                ( 34.51%)   0.5874* C   1 s( 30.71%)p 2.25( 69.09%)d 0.01(  0.20%)
                                            0.0001  0.5505 -0.0637 -0.0050  0.0000
                                            0.0000  0.0000  0.0000  0.8264  0.0893
                                            0.0000  0.0000  0.0000  0.0031  0.0449
                ( 65.49%)   0.8093* O   4 s( 35.76%)p 1.79( 64.17%)d 0.00(  0.07%)
                                            0.0000  0.5968 -0.0372 -0.0002  0.0000
                                            0.0000  0.0000  0.0000 -0.8009  0.0140
                                            0.0000  0.0000  0.0000  0.0030  0.0269
     5. (1.99970) CR ( 1) C   1           s(100.00%)
                                            1.0000 -0.0001  0.0000  0.0000  0.0000
                                            0.0000  0.0000  0.0000  0.0000  0.0000
                                            0.0000  0.0000  0.0000  0.0000  0.0000
     6. (1.99986) CR ( 1) O   4           s(100.00%)p 0.00(  0.00%)
                                            1.0000  0.0002  0.0000  0.0000  0.0000
                                            0.0000  0.0000  0.0000  0.0001  0.0000
                                            0.0000  0.0000  0.0000  0.0000  0.0000
     7. (1.99056) LP ( 1) O   4           s( 64.39%)p 0.55( 35.60%)d 0.00(  0.01%)
                                           -0.0002  0.8022  0.0182  0.0001  0.0000
                                            0.0000  0.0000  0.0000  0.5967  0.0001
                                            0.0000  0.0000  0.0000  0.0031 -0.0091
     8. (1.91478) LP ( 2) O   4           s(  0.00%)p 1.00( 99.90%)d 0.00(  0.10%)
                                            0.0000  0.0000  0.0000  0.0000  0.0000
                                            0.0000  0.9994  0.0127  0.0000  0.0000
                                            0.0000  0.0000 -0.0310  0.0000  0.0000
     9. (0.00659) RY*( 1) C   1           s( 27.70%)p 2.61( 72.23%)d 0.00(  0.07%)
                                            0.0000  0.0472  0.5182 -0.0792  0.0000
                                            0.0000  0.0000  0.0000  0.0978 -0.8442
                                            0.0000  0.0000  0.0000  0.0061  0.0259
    10. (0.00380) RY*( 2) C   1           s(  0.00%)p 1.00(  2.51%)d38.88( 97.49%)
                                            0.0000  0.0000  0.0000  0.0000  0.0000
                                            0.0000  0.0326 -0.1549  0.0000  0.0000
                                            0.0000  0.0000  0.9874  0.0000  0.0000
    11. (0.00002) RY*( 3) C   1           s(  9.27%)p 0.04(  0.33%)d 9.75( 90.40%)
    12. (0.00000) RY*( 4) C   1           s(  0.00%)p 1.00( 97.61%)d 0.02(  2.39%)
    13. (0.00001) RY*( 5) C   1           s( 72.51%)p 0.38( 27.49%)d 0.00(  0.00%)
    14. (0.00000) RY*( 6) C   1           s(  0.00%)p 0.00(  0.00%)d 1.00(100.00%)
    15. (0.00000) RY*( 7) C   1           s(  0.00%)p 1.00(  0.25%)d99.99( 99.75%)
    16. (0.00000) RY*( 8) C   1           s( 90.27%)p 0.00(  0.33%)d 0.10(  9.40%)
    17. (0.00000) RY*( 9) C   1           s(  0.08%)p 0.51(  0.04%)d99.99( 99.87%)
    18. (0.00000) RY*(10) C   1           s(  0.00%)p 1.00(100.00%)d 0.00(  0.00%)
    19. (0.00326) RY*( 1) H   2           s(100.00%)
                                           -0.0103  0.9999
    20. (0.00326) RY*( 1) H   3           s(100.00%)
                                           -0.0103  0.9999
    21. (0.00330) RY*( 1) O   4           s(  0.00%)p 1.00( 99.00%)d 0.01(  1.00%)
                                            0.0000  0.0000  0.0000  0.0000  0.0000
                                            0.0000 -0.0096  0.9949  0.0000  0.0000
                                            0.0000  0.0000  0.1002  0.0000  0.0000
    22. (0.00023) RY*( 2) O   4           s( 31.14%)p 2.18( 67.80%)d 0.03(  1.06%)
                                            0.0000  0.0121  0.5513 -0.0857  0.0000
                                            0.0000  0.0000  0.0000 -0.0336 -0.8227
                                            0.0000  0.0000  0.0000 -0.0774 -0.0681
    23. (0.00000) RY*( 3) O   4           s(  0.00%)p 1.00(100.00%)d 0.00(  0.00%)
    24. (0.00000) RY*( 4) O   4           s( 68.88%)p 0.45( 31.12%)d 0.00(  0.00%)
    25. (0.00000) RY*( 5) O   4           s( 99.49%)p 0.01(  0.50%)d 0.00(  0.01%)
    26. (0.00000) RY*( 6) O   4           s(  0.00%)p 0.00(  0.00%)d 1.00(100.00%)
    27. (0.00000) RY*( 7) O   4           s(  0.00%)p 1.00(  0.19%)d99.99( 99.81%)
    28. (0.00000) RY*( 8) O   4           s(  0.00%)p 1.00(  1.10%)d89.83( 98.90%)
    29. (0.00000) RY*( 9) O   4           s(  0.19%)p 2.22(  0.42%)d99.99( 99.39%)
    30. (0.00001) RY*(10) O   4           s(  0.15%)p 2.53(  0.39%)d99.99( 99.46%)
    31. (0.04044) BD*( 1) C   1 - H   2  
                ( 41.40%)   0.6434* C   1 s( 34.73%)p 1.88( 65.19%)d 0.00(  0.09%)
                                            0.0000 -0.5890 -0.0178 -0.0012  0.0000
                                            0.0000 -0.7067  0.0046  0.3904  0.0018
                                            0.0000  0.0000  0.0241  0.0161  0.0057
                ( 58.60%)  -0.7655* H   2 s(100.00%)
                                           -0.9999 -0.0103
    32. (0.04044) BD*( 1) C   1 - H   3  
                ( 41.40%)   0.6434* C   1 s( 34.73%)p 1.88( 65.19%)d 0.00(  0.09%)
                                            0.0000 -0.5890 -0.0178 -0.0012  0.0000
                                            0.0000  0.7067 -0.0046  0.3904  0.0018
                                            0.0000  0.0000 -0.0241  0.0161  0.0057
                ( 58.60%)  -0.7655* H   3 s(100.00%)
                                           -0.9999 -0.0103
    33. (0.00000) BD*( 1) C   1 - O   4  
                ( 63.99%)   0.7999* C   1 s(  0.00%)p 1.00( 99.75%)d 0.00(  0.25%)
                ( 36.01%)  -0.6001* O   4 s(  0.00%)p 1.00( 99.81%)d 0.00(  0.19%)
    34. (0.00008) BD*( 2) C   1 - O   4  
                ( 65.49%)   0.8093* C   1 s( 30.71%)p 2.25( 69.09%)d 0.01(  0.20%)
                ( 34.51%)  -0.5874* O   4 s( 35.76%)p 1.79( 64.17%)d 0.00(  0.07%)


 NHO Directionality and "Bond Bending" (deviations from line of nuclear centers)

         [Thresholds for printing:  angular deviation  >  1.0 degree]
                                    hybrid p-character > 25.0%
                                    orbital occupancy  >  0.10e

                                Line of Centers        Hybrid 1              Hybrid 2
                                ---------------  -------------------   ------------------
                NBO               Theta   Phi    Theta   Phi    Dev    Theta   Phi    Dev
 ========================================================================================
     1. BD (   1) C   1 - H   2   120.2   90.0   119.2   90.0   1.0      --     --    --
     2. BD (   1) C   1 - H   3   120.2  270.0   119.2  270.0   1.0      --     --    --
     3. BD (   1) C   1 - O   4     0.0    0.0    90.0    0.0  90.0     90.0    0.0  90.0
     7. LP (   1) O   4             --     --      0.0    0.0   --       --     --    --
     8. LP (   2) O   4             --     --     90.0   90.0   --       --     --    --


 Second Order Perturbation Theory Analysis of Fock Matrix in NBO Basis

     Threshold for printing:   0.50 kcal/mol
                                                                              E(2)  E(j)-E(i) F(i,j)
         Donor NBO (i)                     Acceptor NBO (j)                 kcal/mol   a.u.    a.u. 
 ===================================================================================================

 within unit  1
   1. BD (   1) C   1 - H   2        / 21. RY*(   1) O   4                    1.49    1.64    0.044
   2. BD (   1) C   1 - H   3        / 21. RY*(   1) O   4                    1.49    1.64    0.044
   4. BD (   2) C   1 - O   4        /  9. RY*(   1) C   1                    0.79    1.63    0.032
   6. CR (   1) O   4                /  9. RY*(   1) C   1                    3.55   19.57    0.236
   7. LP (   1) O   4                /  9. RY*(   1) C   1                    7.18    1.37    0.089
   7. LP (   1) O   4                / 31. BD*(   1) C   1 - H   2            0.68    1.20    0.026
   7. LP (   1) O   4                / 32. BD*(   1) C   1 - H   3            0.68    1.20    0.026
   8. LP (   2) O   4                / 10. RY*(   2) C   1                    3.02    2.44    0.078
   8. LP (   2) O   4                / 31. BD*(   1) C   1 - H   2           15.04    0.74    0.095
   8. LP (   2) O   4                / 32. BD*(   1) C   1 - H   3           15.04    0.74    0.095


 Natural Bond Orbitals (Summary):

                                                            Principal Delocalizations
           NBO                        Occupancy    Energy   (geminal,vicinal,remote)
 ====================================================================================
 Molecular unit  1  (CH2O)
     1. BD (   1) C   1 - H   2          1.99694    -0.58623  21(v)
     2. BD (   1) C   1 - H   3          1.99694    -0.58623  21(v)
     3. BD (   1) C   1 - O   4          2.00000    -0.38077   
     4. BD (   2) C   1 - O   4          1.99980    -0.99622  9(g)
     5. CR (   1) C   1                  1.99970   -10.18024   
     6. CR (   1) O   4                  1.99986   -18.94054  9(v)
     7. LP (   1) O   4                  1.99056    -0.73540  9(v),31(v),32(v)
     8. LP (   2) O   4                  1.91478    -0.27571  31(v),32(v),10(v)
     9. RY*(   1) C   1                  0.00659     0.63154   
    10. RY*(   2) C   1                  0.00380     2.16204   
    11. RY*(   3) C   1                  0.00002     2.43229   
    12. RY*(   4) C   1                  0.00000     0.73638   
    13. RY*(   5) C   1                  0.00001     0.88808   
    14. RY*(   6) C   1                  0.00000     1.62112   
    15. RY*(   7) C   1                  0.00000     1.91466   
    16. RY*(   8) C   1                  0.00000     3.43277   
    17. RY*(   9) C   1                  0.00000     2.01525   
    18. RY*(  10) C   1                  0.00000     0.51007   
    19. RY*(   1) H   2                  0.00326     0.57616   
    20. RY*(   1) H   3                  0.00326     0.57616   
    21. RY*(   1) O   4                  0.00330     1.04977   
    22. RY*(   2) O   4                  0.00023     1.34280   
    23. RY*(   3) O   4                  0.00000     0.95555   
    24. RY*(   4) O   4                  0.00000     1.06240   
    25. RY*(   5) O   4                  0.00000     3.41540   
    26. RY*(   6) O   4                  0.00000     1.81051   
    27. RY*(   7) O   4                  0.00000     2.04477   
    28. RY*(   8) O   4                  0.00000     2.12784   
    29. RY*(   9) O   4                  0.00000     1.81401   
    30. RY*(  10) O   4                  0.00001     2.77994   
    31. BD*(   1) C   1 - H   2          0.04044     0.46065   
    32. BD*(   1) C   1 - H   3          0.04044     0.46065   
    33. BD*(   1) C   1 - O   4          0.00000    -0.02798   
    34. BD*(   2) C   1 - O   4          0.00008     0.51838   
       -------------------------------
              Total Lewis   15.89857  ( 99.3661%)
        Valence non-Lewis    0.08095  (  0.5060%)
        Rydberg non-Lewis    0.02047  (  0.1280%)
       -------------------------------
            Total unit  1   16.00000  (100.0000%)
           Charge unit  1    0.00000
 1|1|UNPC-X500|SP|RB3LYP|6-31G(d)|C1H2O1|SOBEREVA|02-Jan-2018|0||# B3LY
 P/6-31G* pop=nboread||B3LYP/6-31G* opted||0,1|C,0,0.,0.,-0.56221066|H,
 0,0.,-0.92444767,-1.10110537|H,0,0.,0.92444767,-1.10110537|O,0,0.,0.,0
 .6961893||Version=IA32W-G09RevD.01|State=1-A1|HF=-114.495128|RMSD=4.56
 8e-009|Dipole=0.,0.,-0.9544072|Quadrupole=0.0510146,0.1504241,-0.20143
 87,0.,0.,0.|PG=C02V [C2(C1O1),SGV(H2)]||@


 THE ONLY DIFFERENCE BETWEEN ECCENTRICS AND JOGGERS
 IS THAT JOGGERS WEAR SWEATBANDS WHEN THEY RUN IN THE RAIN.
 Job cpu time:       0 days  0 hours  0 minutes  3.0 seconds.
 File lengths (MBytes):  RWF=      5 Int=      0 D2E=      0 Chk=      1 Scr=      1
 Normal termination of Gaussian 09 at Tue Jan 02 10:51:35 2018.
