test                                                                    
FOpt      RB3LYP                                                      6-31G(d,p)          
Number of atoms                            I                3
Info1-9                                    I   N=           9
          11          10           0           0           0         110
           2          18        -502
Charge                                     I                0
Multiplicity                               I                1
Number of electrons                        I               10
Number of alpha electrons                  I                5
Number of beta electrons                   I                5
Number of basis functions                  I               25
Number of independent functions            I               25
Number of point charges in /Mol/           I                0
Number of translation vectors              I                0
Atomic numbers                             I   N=           3
           8           1           1
Nuclear charges                            R   N=           3
  8.00000000E+00  1.00000000E+00  1.00000000E+00
Current cartesian coordinates              R   N=           9
  4.62223187E-33  2.53357191E-33  2.25257342E-01  0.00000000E+00  1.43497671E+00
 -9.01029368E-01 -1.75728160E-16 -1.43497671E+00 -9.01029368E-01
Force Field                                I                0
Int Atom Types                             I   N=           3
           0           0           0
MM charges                                 R   N=           3
  0.00000000E+00  0.00000000E+00  0.00000000E+00
Integer atomic weights                     I   N=           3
          16           1           1
Real atomic weights                        R   N=           3
  1.59949146E+01  1.00782504E+00  1.00782504E+00
Atom fragment info                         I   N=           3
           0           0           0
Atom residue num                           I   N=           3
           0           0           0
Nuclear spins                              I   N=           3
           0           1           1
Nuclear ZEff                               R   N=           3
 -5.60000000E+00 -1.00000000E+00 -1.00000000E+00
Nuclear ZNuc                               R   N=           3
  8.00000000E+00  1.00000000E+00  1.00000000E+00
Nuclear QMom                               R   N=           3
  0.00000000E+00  0.00000000E+00  0.00000000E+00
Nuclear GFac                               R   N=           3
  0.00000000E+00  2.79284600E+00  2.79284600E+00
MicOpt                                     I   N=           3
          -1          -1          -1
Number of contracted shells                I               10
Number of primitive shells                 I               21
Pure/Cartesian d shells                    I                1
Pure/Cartesian f shells                    I                0
Highest angular momentum                   I                2
Largest degree of contraction              I                6
Shell types                                I   N=          10
           0          -1          -1           2           0           0
           1           0           0           1
Number of primitives per shell             I   N=          10
           6           3           1           1           3           1
           1           3           1           1
Shell to atom map                          I   N=          10
           1           1           1           1           2           2
           2           3           3           3
Primitive exponents                        R   N=          21
  5.48467166E+03  8.25234946E+02  1.88046958E+02  5.29645000E+01  1.68975704E+01
  5.79963534E+00  1.55396162E+01  3.59993359E+00  1.01376175E+00  2.70005823E-01
  8.00000000E-01  1.87311370E+01  2.82539436E+00  6.40121692E-01  1.61277759E-01
  1.10000000E+00  1.87311370E+01  2.82539436E+00  6.40121692E-01  1.61277759E-01
  1.10000000E+00
Contraction coefficients                   R   N=          21
  1.83107443E-03  1.39501722E-02  6.84450781E-02  2.32714336E-01  4.70192898E-01
  3.58520853E-01 -1.10777550E-01 -1.48026263E-01  1.13076702E+00  1.00000000E+00
  1.00000000E+00  3.34946043E-02  2.34726953E-01  8.13757326E-01  1.00000000E+00
  1.00000000E+00  3.34946043E-02  2.34726953E-01  8.13757326E-01  1.00000000E+00
  1.00000000E+00
P(S=P) Contraction coefficients            R   N=          21
  0.00000000E+00  0.00000000E+00  0.00000000E+00  0.00000000E+00  0.00000000E+00
  0.00000000E+00  7.08742682E-02  3.39752839E-01  7.27158577E-01  1.00000000E+00
  0.00000000E+00  0.00000000E+00  0.00000000E+00  0.00000000E+00  0.00000000E+00
  0.00000000E+00  0.00000000E+00  0.00000000E+00  0.00000000E+00  0.00000000E+00
  0.00000000E+00
Coordinates of each shell                  R   N=          30
  1.54074396E-33  2.53357191E-33  2.25257342E-01  1.54074396E-33  2.53357191E-33
  2.25257342E-01  1.54074396E-33  2.53357191E-33  2.25257342E-01  1.54074396E-33
  2.53357191E-33  2.25257342E-01 -2.46519033E-32  1.43497671E+00 -9.01029368E-01
 -2.46519033E-32  1.43497671E+00 -9.01029368E-01 -2.46519033E-32  1.43497671E+00
 -9.01029368E-01 -1.75728160E-16 -1.43497671E+00 -9.01029368E-01 -1.75728160E-16
 -1.43497671E+00 -9.01029368E-01 -1.75728160E-16 -1.43497671E+00 -9.01029368E-01
Constraint Structure                       R   N=           9
  0.00000000E+00  3.42113883E-49  2.24579967E-01  0.00000000E+00  1.43005025E+00
 -8.98319868E-01 -1.75124862E-16 -1.43005025E+00 -8.98319868E-01
Num ILSW                                   I              100
ILSW                                       I   N=         100
           0           1           0           0           2           0
           0           0           0           0         402          -1
           0           0           0           0           2           0
           0           0           0           0           1           0
           1           0           0           0           0           0
           0           0      100000           0          -1           0
           0           0           0           0           0           0
           0           0           0           1           0           0
           0           0           1           0           0           0
           0           0           4          41           0           0
           0           0           5           0           0           0
           0           0           0           3           0           0
           0           0           0           0           0           0
           0           0           0           0           0           0
           0           0           0           0           0           0
           0           0           0           0           0           0
           0           0           0           0
Num RLSW                                   I               41
RLSW                                       R   N=          41
  8.00000000E-01  7.20000000E-01  1.00000000E+00  8.10000000E-01  2.00000000E-01
  0.00000000E+00  0.00000000E+00  1.00000000E+00  0.00000000E+00  0.00000000E+00
  0.00000000E+00  0.00000000E+00  1.00000000E+00  0.00000000E+00  0.00000000E+00
  0.00000000E+00  0.00000000E+00  1.00000000E+00  0.00000000E+00  0.00000000E+00
  0.00000000E+00  0.00000000E+00  1.00000000E+00  0.00000000E+00  0.00000000E+00
  0.00000000E+00  0.00000000E+00  1.00000000E+00  0.00000000E+00  0.00000000E+00
  0.00000000E+00  0.00000000E+00  1.00000000E+00  0.00000000E+00  0.00000000E+00
  0.00000000E+00  0.00000000E+00  0.00000000E+00  1.00000000E+00  1.00000000E+00
  0.00000000E+00
MxBond                                     I                2
NBond                                      I   N=           3
           2           1           1
IBond                                      I   N=           6
           2           3           1           0           1           0
RBond                                      R   N=           6
  1.00000000E+00  1.00000000E+00  1.00000000E+00  0.00000000E+00  1.00000000E+00
  0.00000000E+00
Virial Ratio                               R      2.007825254701348E+00
SCF Energy                                 R     -7.641973663672292E+01
Total Energy                               R     -7.641973663672292E+01
RMS Force                                  R      7.204054562517795E-06
RMS Density                                R      2.131903814652300E-09
External E-field                           R   N=          35
  0.00000000E+00  0.00000000E+00  0.00000000E+00  0.00000000E+00  0.00000000E+00
  0.00000000E+00  0.00000000E+00  0.00000000E+00  0.00000000E+00  0.00000000E+00
  0.00000000E+00  0.00000000E+00  0.00000000E+00  0.00000000E+00  0.00000000E+00
  0.00000000E+00  0.00000000E+00  0.00000000E+00  0.00000000E+00  0.00000000E+00
  0.00000000E+00  0.00000000E+00  0.00000000E+00  0.00000000E+00  0.00000000E+00
  0.00000000E+00  0.00000000E+00  0.00000000E+00  0.00000000E+00  0.00000000E+00
  0.00000000E+00  0.00000000E+00  0.00000000E+00  0.00000000E+00  0.00000000E+00
IOpCl                                      I                0
IROHF                                      I                0
Alpha Orbital Energies                     R   N=          25
 -1.91380031E+01 -9.97310177E-01 -5.14991640E-01 -3.71014286E-01 -2.91960614E-01
  6.53470676E-02  1.51226997E-01  7.56860567E-01  8.05502986E-01  8.91352292E-01
  8.93524348E-01  1.01556778E+00  1.17535987E+00  1.52950018E+00  1.53769010E+00
  1.64364650E+00  2.23869160E+00  2.26818120E+00  2.45007183E+00  2.64102009E+00
  2.66673756E+00  3.02785258E+00  3.30719548E+00  3.53152093E+00  3.69292297E+00
Alpha MO coefficients                      R   N=         625
  9.92880996E-01  2.62253561E-02  0.00000000E+00  0.00000000E+00 -1.24136245E-03
  1.02913565E-02  0.00000000E+00  0.00000000E+00 -2.21673296E-04 -7.74320813E-03
 -7.49353216E-03 -7.54675953E-03  0.00000000E+00  0.00000000E+00  0.00000000E+00
  1.48095426E-04 -1.14879039E-03  0.00000000E+00  2.75436343E-04 -1.68752523E-04
  1.48095426E-04 -1.14879039E-03  0.00000000E+00 -2.75436343E-04 -1.68752523E-04
 -2.10485848E-01  4.67607506E-01  0.00000000E+00  0.00000000E+00 -1.19183299E-01
  4.22151520E-01  0.00000000E+00  0.00000000E+00 -4.11193703E-02 -8.08032458E-03
  1.84976831E-04  2.98313124E-03  0.00000000E+00  0.00000000E+00  0.00000000E+00
  1.51983993E-01  1.77540596E-02  0.00000000E+00 -2.10525893E-02  1.24391660E-02
  1.51983993E-01  1.77540596E-02  0.00000000E+00  2.10525893E-02  1.24391660E-02
  0.00000000E+00  0.00000000E+00  0.00000000E+00  5.13993422E-01  0.00000000E+00
  0.00000000E+00  0.00000000E+00  2.47223107E-01  0.00000000E+00  0.00000000E+00
  0.00000000E+00  0.00000000E+00  0.00000000E+00  0.00000000E+00 -2.88372285E-02
  2.44126200E-01  1.57236593E-01  0.00000000E+00 -6.10321334E-03  1.58446319E-02
 -2.44126200E-01 -1.57236593E-01  0.00000000E+00 -6.10321334E-03 -1.58446319E-02
 -8.76264792E-02  1.74164282E-01  0.00000000E+00  0.00000000E+00  5.52658378E-01
  4.16349687E-01  0.00000000E+00  0.00000000E+00  3.64052494E-01 -1.44537974E-03
 -4.44064213E-03 -4.62051377E-02  0.00000000E+00  0.00000000E+00  0.00000000E+00
 -1.44225463E-01 -1.16333366E-01  0.00000000E+00  1.02712651E-02  1.06000742E-02
 -1.44225463E-01 -1.16333366E-01  0.00000000E+00 -1.02712651E-02  1.06000742E-02
  0.00000000E+00  0.00000000E+00  6.43966661E-01  0.00000000E+00  0.00000000E+00
  0.00000000E+00  4.94567236E-01  0.00000000E+00  0.00000000E+00  0.00000000E+00
  0.00000000E+00  0.00000000E+00  0.00000000E+00 -2.90842177E-02  0.00000000E+00
  0.00000000E+00  0.00000000E+00  2.09879444E-02  0.00000000E+00  0.00000000E+00
  0.00000000E+00  0.00000000E+00  2.09879444E-02  0.00000000E+00  0.00000000E+00
 -1.01135869E-01  1.17654827E-01  0.00000000E+00  0.00000000E+00 -2.75951214E-01
  1.26120988E+00  0.00000000E+00  0.00000000E+00 -4.69980923E-01 -5.75973433E-02
 -5.17815509E-02 -3.24242989E-02  0.00000000E+00  0.00000000E+00  0.00000000E+00
 -9.03100807E-02 -9.69311560E-01  0.00000000E+00 -7.04109657E-03  4.34451467E-03
 -9.03100807E-02 -9.69311560E-01  0.00000000E+00  7.04109657E-03  4.34451467E-03
  0.00000000E+00  0.00000000E+00  0.00000000E+00 -4.10621667E-01  0.00000000E+00
  0.00000000E+00  0.00000000E+00 -7.58497249E-01  0.00000000E+00  0.00000000E+00
  0.00000000E+00  0.00000000E+00  0.00000000E+00  0.00000000E+00  1.83813452E-02
  1.03592065E-01  1.28650538E+00  0.00000000E+00 -2.81504383E-03 -3.76085353E-03
 -1.03592065E-01 -1.28650538E+00  0.00000000E+00 -2.81504383E-03  3.76085353E-03
  0.00000000E+00  0.00000000E+00  0.00000000E+00  2.02289487E-01  0.00000000E+00
  0.00000000E+00  0.00000000E+00  1.66469637E-01  0.00000000E+00  0.00000000E+00
  0.00000000E+00  0.00000000E+00  0.00000000E+00  0.00000000E+00  2.65602224E-01
 -7.70843174E-01  7.95362652E-01  0.00000000E+00 -4.95448166E-02  9.95704427E-02
  7.70843174E-01 -7.95362652E-01  0.00000000E+00 -4.95448166E-02 -9.95704427E-02
  3.72564177E-02 -8.79223798E-02  0.00000000E+00  0.00000000E+00  6.47727058E-01
  2.38855458E-01  0.00000000E+00  0.00000000E+00 -5.57916033E-01 -1.08699916E-01
  2.62163335E-01  9.42436613E-02  0.00000000E+00  0.00000000E+00  0.00000000E+00
  5.66967332E-01 -6.01458512E-01  0.00000000E+00  1.64397258E-01 -6.81897361E-02
  5.66967332E-01 -6.01458512E-01  0.00000000E+00 -1.64397258E-01 -6.81897361E-02
  0.00000000E+00  0.00000000E+00 -9.59669717E-01  0.00000000E+00  0.00000000E+00
  0.00000000E+00  1.03730441E+00  0.00000000E+00  0.00000000E+00  0.00000000E+00
  0.00000000E+00  0.00000000E+00  0.00000000E+00 -1.60394745E-02  0.00000000E+00
  0.00000000E+00  0.00000000E+00  2.04344576E-03  0.00000000E+00  0.00000000E+00
  0.00000000E+00  0.00000000E+00  2.04344576E-03  0.00000000E+00  0.00000000E+00
  1.30733538E-02 -8.16634805E-01  0.00000000E+00  0.00000000E+00 -5.29964485E-01
  1.34995649E+00  0.00000000E+00  0.00000000E+00  8.07143852E-01 -3.23588433E-01
 -1.47584388E-01 -2.72318229E-01  0.00000000E+00  0.00000000E+00  0.00000000E+00
  5.02372052E-01 -3.81427708E-01  0.00000000E+00  1.97979740E-02  3.72005694E-02
  5.02372052E-01 -3.81427708E-01  0.00000000E+00 -1.97979740E-02  3.72005694E-02
  0.00000000E+00  0.00000000E+00  0.00000000E+00 -8.64450802E-01  0.00000000E+00
  0.00000000E+00  0.00000000E+00  1.79560296E+00  0.00000000E+00  0.00000000E+00
  0.00000000E+00  0.00000000E+00  0.00000000E+00  0.00000000E+00 -9.09515021E-02
 -1.52391365E-01 -9.63648803E-01  0.00000000E+00  1.44814650E-01 -9.01850836E-02
  1.52391365E-01  9.63648803E-01  0.00000000E+00  1.44814650E-01  9.01850836E-02
 -7.68233925E-02 -1.42551890E+00  0.00000000E+00  0.00000000E+00  3.51429464E-01
  3.52741501E+00  0.00000000E+00  0.00000000E+00 -9.90397211E-01 -2.77717916E-01
 -6.25752092E-01 -3.33467181E-01  0.00000000E+00  0.00000000E+00  0.00000000E+00
 -3.26615267E-01 -7.70242791E-01  0.00000000E+00 -3.37163172E-02 -1.10034209E-01
 -3.26615267E-01 -7.70242791E-01  0.00000000E+00  3.37163172E-02 -1.10034209E-01
  0.00000000E+00  0.00000000E+00  0.00000000E+00  0.00000000E+00  0.00000000E+00
  0.00000000E+00  0.00000000E+00  0.00000000E+00  0.00000000E+00  0.00000000E+00
  0.00000000E+00  0.00000000E+00  6.80091834E-01  0.00000000E+00  0.00000000E+00
  0.00000000E+00  0.00000000E+00  3.50699481E-01  0.00000000E+00  0.00000000E+00
  0.00000000E+00  0.00000000E+00 -3.50699481E-01  0.00000000E+00  0.00000000E+00
 -2.81032922E-02 -3.23887228E-01  0.00000000E+00  0.00000000E+00  6.20595747E-02
  9.01878226E-01  0.00000000E+00  0.00000000E+00 -5.19638278E-01  2.45597089E-01
  2.55722126E-01 -7.88621884E-01  0.00000000E+00  0.00000000E+00  0.00000000E+00
 -2.37549196E-01 -1.56532256E-01  0.00000000E+00  1.82606334E-01  2.48209218E-01
 -2.37549196E-01 -1.56532256E-01  0.00000000E+00 -1.82606334E-01  2.48209218E-01
  0.00000000E+00  0.00000000E+00  1.49122192E-02  0.00000000E+00  0.00000000E+00
  0.00000000E+00  2.05004089E-01  0.00000000E+00  0.00000000E+00  0.00000000E+00
  0.00000000E+00  0.00000000E+00  0.00000000E+00  7.83566197E-01  0.00000000E+00
  0.00000000E+00  0.00000000E+00 -3.00707016E-01  0.00000000E+00  0.00000000E+00
  0.00000000E+00  0.00000000E+00 -3.00707016E-01  0.00000000E+00  0.00000000E+00
 -4.70861059E-02 -5.67641542E-01  0.00000000E+00  0.00000000E+00  2.08775081E-01
  1.36599797E+00  0.00000000E+00  0.00000000E+00 -6.36972754E-01 -1.06654100E+00
  5.21388748E-01  3.36537060E-02  0.00000000E+00  0.00000000E+00  0.00000000E+00
 -6.24248343E-01 -9.22262877E-02  0.00000000E+00 -1.61298719E-01  1.58225882E-01
 -6.24248343E-01 -9.22262877E-02  0.00000000E+00  1.61298719E-01  1.58225882E-01
  0.00000000E+00  0.00000000E+00  0.00000000E+00  3.79426575E-02  0.00000000E+00
  0.00000000E+00  0.00000000E+00 -4.78785701E-01  0.00000000E+00  0.00000000E+00
  0.00000000E+00  0.00000000E+00  0.00000000E+00  0.00000000E+00 -1.45308658E-01
  1.04109303E-01  1.03047581E-01  0.00000000E+00  4.79700664E-01  5.82441820E-01
 -1.04109303E-01 -1.03047581E-01  0.00000000E+00  4.79700664E-01 -5.82441820E-01
  0.00000000E+00  0.00000000E+00  0.00000000E+00  3.40712271E-01  0.00000000E+00
  0.00000000E+00  0.00000000E+00 -4.82498684E-01  0.00000000E+00  0.00000000E+00
  0.00000000E+00  0.00000000E+00  0.00000000E+00  0.00000000E+00  7.97875317E-01
  5.38403767E-01 -2.02042152E-01  0.00000000E+00  3.32015071E-01 -2.33074709E-01
 -5.38403767E-01  2.02042152E-01  0.00000000E+00  3.32015071E-01  2.33074709E-01
  0.00000000E+00  0.00000000E+00  0.00000000E+00  0.00000000E+00  0.00000000E+00
  0.00000000E+00  0.00000000E+00  0.00000000E+00  0.00000000E+00  0.00000000E+00
  0.00000000E+00  0.00000000E+00  8.80565107E-01  0.00000000E+00  0.00000000E+00
  0.00000000E+00  0.00000000E+00 -7.09023482E-01  0.00000000E+00  0.00000000E+00
  0.00000000E+00  0.00000000E+00  7.09023482E-01  0.00000000E+00  0.00000000E+00
  0.00000000E+00  0.00000000E+00 -1.34104199E-02  0.00000000E+00  0.00000000E+00
  0.00000000E+00 -4.17600085E-01  0.00000000E+00  0.00000000E+00  0.00000000E+00
  0.00000000E+00  0.00000000E+00  0.00000000E+00  7.36578695E-01  0.00000000E+00
  0.00000000E+00  0.00000000E+00  7.62920848E-01  0.00000000E+00  0.00000000E+00
  0.00000000E+00  0.00000000E+00  7.62920848E-01  0.00000000E+00  0.00000000E+00
  2.05083601E-02 -1.81759045E-01  0.00000000E+00  0.00000000E+00  4.57158841E-02
  1.31933533E-01  0.00000000E+00  0.00000000E+00 -4.61377959E-01 -2.06919313E-02
 -7.49845967E-01  9.48131475E-01  0.00000000E+00  0.00000000E+00  0.00000000E+00
 -9.06675313E-02 -4.49761336E-02  0.00000000E+00  4.48124624E-01  6.76520317E-01
 -9.06675313E-02 -4.49761336E-02  0.00000000E+00 -4.48124624E-01  6.76520317E-01
 -2.46812026E-01  1.99643123E-01  0.00000000E+00  0.00000000E+00 -4.37073103E-01
  2.84643291E+00  0.00000000E+00  0.00000000E+00 -8.59454961E-01 -1.19132525E+00
 -4.20217686E-02 -3.01716173E-01  0.00000000E+00  0.00000000E+00  0.00000000E+00
 -7.80946756E-01 -5.75363818E-01  0.00000000E+00  7.65076696E-01 -4.58350201E-01
 -7.80946756E-01 -5.75363818E-01  0.00000000E+00 -7.65076696E-01 -4.58350201E-01
  0.00000000E+00  0.00000000E+00  0.00000000E+00 -6.92397230E-01  0.00000000E+00
  0.00000000E+00  0.00000000E+00 -1.34216449E+00  0.00000000E+00  0.00000000E+00
  0.00000000E+00  0.00000000E+00  0.00000000E+00  0.00000000E+00  1.48341004E+00
  1.18640937E+00  5.37133749E-01  0.00000000E+00 -8.06786534E-01  6.99937256E-01
 -1.18640937E+00 -5.37133749E-01  0.00000000E+00 -8.06786534E-01 -6.99937256E-01
 -4.02351530E-01  1.70549718E-01  0.00000000E+00  0.00000000E+00  4.58452464E-01
  2.59938962E+00  0.00000000E+00  0.00000000E+00  1.19474839E-01 -1.13978681E+00
 -1.93843848E+00 -1.57746954E+00  0.00000000E+00  0.00000000E+00  0.00000000E+00
  6.58850594E-01 -2.79969322E-01  0.00000000E+00 -4.86134954E-01  4.29510881E-01
  6.58850594E-01 -2.79969322E-01  0.00000000E+00  4.86134954E-01  4.29510881E-01
Total SCF Density                          R   N=         325
  2.07559073E+00 -1.75295015E-01  4.99355492E-01  0.00000000E+00  0.00000000E+00
  8.29386121E-01  0.00000000E+00  0.00000000E+00 -1.23259516E-32  5.28378475E-01
 -4.91472706E-02  8.09795787E-02  7.87967230E-33  7.19021666E-33  6.39274965E-01
 -2.30244171E-01  5.40368717E-01  4.43174554E-33  4.04397663E-33  3.59545913E-01
  7.03329760E-01  0.00000000E+00  0.00000000E+00  6.36969624E-01 -1.07852077E-32
  5.88844258E-33  0.00000000E+00  4.89193503E-01  0.00000000E+00  0.00000000E+00
 -1.07852077E-32  2.54142101E-01  2.85845195E-33  0.00000000E+00 -6.16297582E-33
  1.22238529E-01 -4.69313760E-02  8.83428034E-02  5.08070003E-33  4.63614890E-33
  4.12195357E-01  2.68424512E-01  3.30890345E-33  3.01938099E-33  2.68450141E-01
 -1.17212734E-02 -8.46644467E-03 -7.95423010E-34  3.91075470E-36  3.47701285E-04
 -8.18518565E-03 -6.18915954E-34 -4.32396682E-36 -3.84439561E-04  2.54676080E-04
 -1.41800057E-02 -1.76685049E-03 -6.08138304E-35 -6.32998052E-34 -4.93380407E-03
 -3.69578064E-03 -3.99994845E-35 -3.14270979E-34 -3.24514371E-03  1.25895441E-04
  1.51813086E-04 -8.14429497E-03 -1.37005331E-02 -1.23781788E-33 -1.15971471E-33
 -5.17636552E-02 -3.61116553E-02 -8.78287723E-34 -6.58882111E-34 -3.38841744E-02
  2.02230862E-04  5.24568353E-04  4.40153480E-03  2.77984043E-34  1.11193617E-34
 -4.21313180E-34 -3.65394103E-34  0.00000000E+00  1.38992021E-34 -3.23569073E-34
 -1.75749069E-34  4.16976064E-35 -4.34350067E-36 -2.60610040E-36 -6.94960107E-36
  1.54663294E-36 -2.41035738E-34 -2.85372517E-34 -3.74585331E-02  8.89548937E-34
 -1.07931335E-33 -6.01342832E-34 -2.87682023E-02  3.89177660E-34 -7.52316437E-34
  4.17150497E-35  8.80994940E-36  9.18934555E-35  1.90282587E-35  1.69178343E-03
 -2.89935578E-34 -2.00881760E-34  8.89548937E-34 -2.96442915E-02 -1.06977786E-33
 -5.16996798E-34  3.89177660E-34 -1.42584584E-02 -6.42586271E-34  4.26152160E-36
  4.11849822E-35  9.63780000E-35  2.05001714E-35 -3.20988324E-35  1.66317149E-03
 -3.84109379E-02  9.19076311E-02 -1.54074396E-33  2.50958522E-01 -1.95643096E-01
  8.22714263E-03 -7.70371978E-34  1.20707275E-01 -1.17510317E-01 -2.04153233E-03
  1.33491486E-03  1.42324559E-02 -1.66790426E-34  3.33580852E-34 -1.40798460E-02
  2.06995484E-01  1.06325857E-02 -2.39786261E-02 -7.70371978E-34  1.61637149E-01
 -1.32814341E-01 -8.19045597E-02 -3.85185989E-34  7.77450378E-02 -8.61624662E-02
  6.71652995E-05  1.05697486E-03  1.08736630E-02 -1.18143218E-34  1.66790426E-34
 -9.06853509E-03  1.15723936E-01  7.71466488E-02 -4.81482486E-35  9.62964972E-35
  2.70310729E-02 -3.85185989E-34  1.92592994E-34  9.62964972E-35  2.07598993E-02
 -1.92592994E-34  1.44444746E-34 -3.00926554E-35  0.00000000E+00 -2.40741243E-35
 -1.72760441E-35 -1.22083589E-03  0.00000000E+00  4.81482486E-35  4.81482486E-35
  8.80987619E-04  7.60942563E-03 -1.60964757E-02  0.00000000E+00 -6.27402301E-03
  1.63705517E-02 -9.21621986E-03  0.00000000E+00 -3.01771072E-03  9.20977571E-03
  3.06266230E-04 -1.03138490E-04 -1.07893302E-03  1.73740027E-36  0.00000000E+00
  3.51999515E-04 -1.23418961E-02 -5.05724932E-03 -2.10648588E-35  1.17207096E-03
 -7.42933350E-03  1.53167522E-02  9.62964972E-35  1.62880731E-02  8.75177687E-03
  1.93256274E-02  4.81482486E-35  7.83431822E-03  6.69506035E-03 -2.29053891E-04
 -8.70112518E-05 -9.02793374E-04 -6.08090094E-36 -1.73740027E-35 -9.13830538E-04
  8.45963657E-03  2.95850635E-03  2.40741243E-35 -4.99500259E-04  1.03635052E-03
 -3.84109379E-02  9.19076311E-02  1.54074396E-33 -2.50958522E-01 -1.95643096E-01
  8.22714263E-03  7.70371978E-34 -1.20707275E-01 -1.17510317E-01 -2.04153233E-03
  1.33491486E-03  1.42324559E-02  1.66790426E-34  1.11193617E-34  1.40798460E-02
 -3.13949221E-02 -3.78183510E-02  4.81482486E-35 -6.38207899E-03 -7.01272249E-03
  2.06995484E-01  1.06325857E-02 -2.39786261E-02  7.70371978E-34 -1.61637149E-01
 -1.32814341E-01 -8.19045597E-02  3.85185989E-34 -7.77450378E-02 -8.61624662E-02
  6.71652995E-05  1.05697486E-03  1.08736630E-02  1.04244016E-34  5.55968086E-35
  9.06853509E-03 -3.78183510E-02 -2.17467354E-02  6.01853108E-36 -1.21865544E-03
 -7.00691735E-03  1.15723936E-01  7.71466488E-02  4.81482486E-35 -9.62964972E-35
  2.70310729E-02 -3.85185989E-34  3.85185989E-34 -9.62964972E-35  2.07598993E-02
 -1.92592994E-34  2.40741243E-34 -2.70833898E-35 -1.50463277E-36 -3.61111865E-35
 -1.01865503E-35 -1.22083589E-03  2.77984043E-35 -4.81482486E-35 -6.01853108E-36
  8.80987619E-04  0.00000000E+00  6.77084746E-36 -4.81482486E-35 -4.81482486E-35
  8.80987619E-04 -7.60942563E-03  1.60964757E-02 -7.70371978E-34 -6.27402301E-03
 -1.63705517E-02  9.21621986E-03 -3.85185989E-34 -3.01771072E-03 -9.20977571E-03
 -3.06266230E-04  1.03138490E-04  1.07893302E-03  5.21220081E-36  2.77984043E-35
  3.51999515E-04  6.38207899E-03  1.21865544E-03  0.00000000E+00 -1.02307411E-03
  1.12687585E-04  1.23418961E-02  5.05724932E-03 -9.02779661E-36  1.17207096E-03
 -7.42933350E-03  1.53167522E-02  2.88889492E-34 -1.62880731E-02  8.75177687E-03
  1.93256274E-02  1.44444746E-34 -7.83431822E-03  6.69506035E-03 -2.29053891E-04
 -8.70112518E-05 -9.02793374E-04  1.47679023E-35 -3.12732048E-35  9.13830538E-04
 -7.01272249E-03 -7.00691735E-03  8.27548023E-36 -1.12687585E-04  3.21410828E-05
  8.45963657E-03  2.95850635E-03  1.80555932E-35  4.99500259E-04  1.03635052E-03
Mulliken Charges                           R   N=           3
 -6.09859762E-01  3.04929881E-01  3.04929881E-01
Optimization MaxStp                        I              100
Optimization Job offset                    I                0
Optimization Num results per geometry      I                2
Optimization Num geometry variables        I                9
Opt point       1 Results for each geome   R   N=           6
 -7.64197175E+01  0.00000000E+00 -7.64197361E+01  0.00000000E+00 -7.64197366E+01
  0.00000000E+00
Opt point       1 Geometries               R   N=          27
  0.00000000E+00  3.42113883E-49  2.24579967E-01  0.00000000E+00  1.43005025E+00
 -8.98319868E-01 -1.75124862E-16 -1.43005025E+00 -8.98319868E-01  1.54074396E-33
  9.88797221E-34  2.24898973E-01 -2.46519033E-32  1.43618771E+00 -8.99595894E-01
 -1.75876460E-16 -1.43618771E+00 -8.99595894E-01  1.54074396E-33  2.53357191E-33
  2.25257342E-01 -2.46519033E-32  1.43497671E+00 -9.01029368E-01 -1.75728160E-16
 -1.43497671E+00 -9.01029368E-01
Opt point       1 Gradient at each geome   R   N=          27
  1.02732698E-15 -2.18952885E-47 -3.56571789E-03 -3.13185750E-16 -2.66681258E-03
  1.78285895E-03 -7.14141234E-16  2.66681258E-03  1.78285895E-03  1.02527517E-15
 -1.33226763E-15 -3.54732307E-04 -3.12443067E-16  1.28372293E-04  1.77366153E-04
 -7.12832103E-16 -1.28372293E-04  1.77366153E-04  1.02391743E-15  1.86715495E-32
 -1.76052972E-05 -3.11868475E-16  1.04064562E-06  8.80264858E-06 -7.12048960E-16
 -1.04064562E-06  8.80264858E-06
Optimization Number of geometries          I   N=           1
           3
ONIOM Charges                              I   N=          16
           0           0           0           0           0           0
           0           0           0           0           0           0
           0           0           0           0
ONIOM Multiplicities                       I   N=          16
           1           0           0           0           0           0
           0           0           0           0           0           0
           0           0           0           0
Atom Layers                                I   N=           3
           1           1           1
Atom Modifiers                             I   N=           3
           0           0           0
Force Field                                I                0
Int Atom Modified Types                    I   N=           3
           0           0           0
Link Atoms                                 I   N=           3
           0           0           0
Atom Modified MM Charges                   R   N=           3
  0.00000000E+00  0.00000000E+00  0.00000000E+00
Link Distances                             R   N=          12
  0.00000000E+00  0.00000000E+00  0.00000000E+00  0.00000000E+00  0.00000000E+00
  0.00000000E+00  0.00000000E+00  0.00000000E+00  0.00000000E+00  0.00000000E+00
  0.00000000E+00  0.00000000E+00
Cartesian Gradient                         R   N=           9
  1.02391743E-15  1.07501935E-20 -1.76052972E-05 -3.11868475E-16  1.04064562E-06
  8.80264858E-06 -7.12048960E-16 -1.04064562E-06  8.80264858E-06
Dipole Moment                              R   N=           3
 -4.96609488E-17 -1.81621068E-32 -8.03723104E-01
Quadrupole Moment                          R   N=           6
 -9.92016799E-01  1.12017381E+00 -1.28157006E-01  7.85131302E-17  4.96981054E-17
  8.67361738E-19
QEq coupling tensors                       R   N=          18
  1.90373688E+00  5.68718567E-17 -1.60626322E+00  4.35990924E-17 -1.45840921E-32
 -2.97473659E-01  2.66163606E-01  2.74534568E-19 -2.19276700E-01  1.28411136E-19
  3.16448282E-01 -4.68869058E-02  2.66163606E-01 -9.47059831E-17 -2.19276700E-01
 -7.43418135E-17 -3.16448282E-01 -4.68869058E-02
