Generated by Saint
SP        RR-HF                                                       6-31Gx
Number of atoms                            I                3
Charge                                     I                0
Multiplicity                               I                1
Number of electrons                        I               10
Number of alpha electrons                  I                5
Number of beta electrons                   I                5
Number of basis functions                  I               19
Number of independent functions            I               19
Atomic numbers                             I   N=           3
           8           1           1
Nuclear charges                            R   N=           3
  8.00000000E+00  1.00000000E+00  1.00000000E+00
Current cartesian coordinates              R   N=           9
  9.44862994E+00  0.00000000E+00 -2.09404089E-01  9.44862994E+00 -1.48149961E+00
  8.37616339E-01  9.44862994E+00  1.48149961E+00  8.37616339E-01
Number of contracted shells                I               10
Number of primitive shells                 I               23
Highest angular momentum                   I                2
Largest degree of contraction              I                6
Shell types                                I   N=          10
           0           0           1           0           1           2
           0           0           0           0
Number of primitives per shell             I   N=          10
           6           3           3           1           1           1
           3           1           3           1
Shell to atom map                          I   N=          10
           1           1           1           1           1           1
           2           2           3           3
Primitive exponents                        R   N=          23
  5.48467166E+03  8.25234946E+02  1.88046958E+02  5.29645000E+01  1.68975704E+01
  5.79963534E+00  1.55396162E+01  3.59993359E+00  1.01376175E+00  1.55396162E+01
  3.59993359E+00  1.01376175E+00  2.70005823E-01  2.70005823E-01  8.00000000E-01
  1.87311370E+01  2.82539437E+00  6.40121692E-01  1.61277759E-01  1.87311370E+01
  2.82539437E+00  6.40121692E-01  1.61277759E-01
Contraction coefficients                   R   N=          23
  1.83107443E-03  1.39501722E-02  6.84450781E-02  2.32714336E-01  4.70192898E-01
  3.58520853E-01 -1.10777550E-01 -1.48026263E-01  1.13076702E+00  7.08742682E-02
  3.39752839E-01  7.27158577E-01  1.00000000E+00  1.00000000E+00  1.00000000E+00
  3.34946043E-02  2.34726954E-01  8.13757326E-01  1.00000000E+00  3.34946043E-02
  2.34726954E-01  8.13757326E-01  1.00000000E+00
Coordinates of each shell                  R   N=          30
  9.44862994E+00  0.00000000E+00 -2.09404089E-01  9.44862994E+00  0.00000000E+00
 -2.09404089E-01  9.44862994E+00  0.00000000E+00 -2.09404089E-01  9.44862994E+00
  0.00000000E+00 -2.09404089E-01  9.44862994E+00  0.00000000E+00 -2.09404089E-01
  9.44862994E+00  0.00000000E+00 -2.09404089E-01  9.44862994E+00 -1.48149961E+00
  8.37616339E-01  9.44862994E+00 -1.48149961E+00  8.37616339E-01  9.44862994E+00
  1.48149961E+00  8.37616339E-01  9.44862994E+00  1.48149961E+00  8.37616339E-01
Virial Ratio                               R      2.002751478283578E+00
Total Energy                               R     -7.600986162671128E+01
Alpha Orbital Energies                     R   N=          19
 -2.05579369E+01 -1.33611033E+00 -7.14232097E-01 -5.60232171E-01 -4.95584706E-01
  2.10596984E-01  3.03901346E-01  1.04597235E+00  1.11652219E+00  1.15955277E+00
  1.16929124E+00  1.38463916E+00  1.41666683E+00  2.03062922E+00  2.03560815E+00
  2.07414142E+00  2.62760387E+00  2.94203325E+00  3.97817598E+00
Alpha MO coefficients                      R   N=         361
  9.94630697E-01  2.11364778E-02  1.96386377E-15 -1.04517089E-16  1.30298233E-03
  4.16466174E-03 -1.04443904E-15 -2.18575158E-16 -4.49239091E-04 -3.93236875E-03
 -4.21719377E-03 -4.07961230E-03  2.21579696E-16  1.69496550E-16 -5.60640943E-16
  3.32039142E-04 -2.20714504E-04  3.32039142E-04 -2.20714504E-04 -2.10287890E-01
  4.76745834E-01 -5.76938916E-16  1.90819582E-16  8.74191617E-02  4.42710607E-01
  2.50322458E-16  2.52575738E-15  4.84453814E-02 -1.18471433E-03  2.85341849E-02
  1.89684008E-02 -2.96703844E-17  2.62065149E-17 -2.81892565E-17  1.29265753E-01
  2.28080577E-03  1.29265753E-01  2.28080577E-03  8.40473524E-16  1.08940634E-15
 -1.71930951E-16  5.04907739E-01  1.36349265E-15 -9.60342916E-15 -1.21267295E-16
  3.03691119E-01 -1.30451205E-15  1.37737044E-15  2.77555756E-17  3.60822483E-16
 -2.13259928E-17 -1.18231205E-16  4.93384521E-02 -2.32618288E-01 -1.06346436E-01
  2.32618288E-01  1.06346436E-01  7.00435013E-02 -1.56846583E-01  8.53196421E-16
 -7.37257477E-16  5.60985513E-01 -3.14499801E-01  1.06346289E-16 -4.68375339E-15
  4.12738167E-01 -1.14295995E-02  6.36402063E-04  4.41019821E-02 -5.37319045E-17
 -4.57159274E-17 -8.50014503E-17  1.37302438E-01  8.52106629E-02  1.37302438E-01
  8.52106629E-02  4.01326134E-16  9.57999077E-15  6.38952977E-01  2.39600197E-17
 -4.99358458E-16 -2.98173510E-14  5.12243697E-01  6.09212009E-17 -5.20394350E-15
  5.42284863E-15  4.73458389E-15  4.99714520E-15  1.88366835E-16  3.24100611E-02
 -1.41352511E-19  1.08634178E-15  7.65505273E-15  1.22334482E-15  7.88850254E-15
 -1.02446789E-01  6.08840838E-02 -2.81302820E-16  2.17881269E-14  2.11560755E-01
  1.42070461E+00  3.16083096E-15  7.64388552E-14  4.87517223E-01 -7.08137443E-02
 -5.62265020E-02 -4.52345646E-02 -9.73405985E-17  6.79172244E-17  2.66973943E-15
 -6.03363433E-02 -1.04332287E+00 -6.03363433E-02 -1.04332287E+00  6.40459907E-15
 -2.19546603E-14 -5.69484882E-17  3.27660702E-01 -1.84713356E-14 -6.19504448E-14
  7.34255727E-17  8.45209644E-01 -2.75890422E-14 -6.52256027E-15 -3.67067488E-15
 -4.49640325E-15 -3.16479090E-17 -7.67329213E-17  2.29515660E-02  4.53007215E-02
  1.37925722E+00 -4.53007215E-02 -1.37925722E+00  1.51441359E-15  4.82738849E-14
 -2.04469566E-16  1.20186383E-01 -1.55604696E-15 -1.08107967E-13  2.61085543E-16
  6.69547494E-01  9.45771239E-15  2.34083586E-14  1.43114687E-14  2.02476924E-14
 -6.12807229E-16 -4.62477416E-17 -2.09167331E-01  8.45840967E-01 -4.38748440E-01
 -8.45840967E-01  4.38748440E-01  2.99751489E-02 -6.81209203E-01 -3.20992738E-14
 -6.71337985E-15  9.52308942E-02  1.03877305E+00  3.59184645E-14  4.44783099E-14
 -5.31232274E-01 -3.32137652E-01 -9.34329136E-03 -2.33600166E-01 -2.95800410E-16
  8.44967723E-16 -9.65850663E-15  7.94531115E-01 -5.49601635E-01  7.94531115E-01
 -5.49601635E-01 -4.51769545E-02 -5.25300895E-01 -3.24490313E-13 -4.79997986E-15
  8.52124772E-01  1.21731458E+00  3.50984457E-13  7.63278329E-15 -6.28879626E-01
 -1.32637119E-01 -3.20467058E-01 -2.12832142E-01 -2.79611678E-16  4.84901206E-15
 -1.36913050E-15 -3.57842777E-01  9.08246038E-02 -3.57842777E-01  9.08246038E-02
  1.19478133E-14  1.58774008E-13 -9.63186422E-01  4.64931907E-16 -3.05551380E-13
 -3.35070734E-13  1.03571590E+00 -1.58962840E-15  2.61689820E-13  4.04996290E-14
  8.83715110E-14  6.35944111E-14  6.18337665E-16  1.36387920E-02 -2.90514076E-16
  8.63171461E-14 -3.60355592E-14  8.71104806E-14 -3.44070222E-14 -1.98990130E-14
 -3.30780542E-13 -6.46186538E-16 -1.03856812E+00 -1.25711941E-13  8.28587199E-13
  7.60847034E-16  1.56952218E+00  2.64378797E-13 -8.04876998E-14 -1.48228652E-13
 -9.15083981E-14 -2.71566419E-16  3.73512025E-16  5.77669584E-03 -7.75299751E-02
  9.02814334E-01  7.75299751E-02 -9.02814334E-01 -8.19960576E-02 -1.46169321E+00
  2.60263974E-14  2.39218367E-13 -5.19074817E-01  3.61316200E+00 -2.45582174E-14
 -3.61086161E-13  1.09999652E+00 -3.26375530E-01 -6.34152741E-01 -4.01026944E-01
 -1.44585342E-16 -7.19668475E-16 -6.18006080E-15 -2.39961595E-01 -8.21371969E-01
 -2.39961595E-01 -8.21371969E-01 -7.77180897E-16 -4.64799567E-15  2.71849713E-16
 -3.81661048E-16 -1.70028128E-16  1.65379690E-14 -1.30098325E-15  1.52694913E-15
  6.81398999E-15  2.31172108E-14  2.65067327E-14 -5.71049948E-14  1.00000000E+00
  1.80414923E-14  2.01603446E-16 -2.89801143E-15 -2.86024398E-15 -5.29660312E-15
 -2.52905002E-15  7.30531764E-03  7.68466608E-02 -7.23434703E-17  2.29287075E-15
  3.83851694E-03 -2.25420995E-01  1.95132618E-16 -2.13067411E-15 -1.22979466E-01
 -4.52462366E-01 -5.02779046E-01  1.01664386E+00  5.50025677E-14  1.40671022E-16
  3.34106386E-15  8.05325078E-02  3.38906184E-02  8.05325078E-02  3.38906184E-02
  1.03866522E-16 -3.90442502E-17 -7.57649112E-03  7.03871581E-16 -7.84584237E-16
 -1.27671368E-15 -3.07467773E-02 -4.06288049E-16  6.14797679E-16  1.94098300E-15
 -6.53030738E-16  1.95810010E-16 -1.84050609E-14  9.99381594E-01  2.05116041E-17
  4.12755393E-16 -7.63304749E-17  1.18127843E-16  1.54891247E-16 -5.57208128E-02
 -4.68494183E-01  5.95330429E-16  2.84928331E-15 -4.24022598E-02  1.50221400E+00
 -4.47763228E-16 -1.47312718E-14  6.76907905E-01 -1.09572119E+00  8.32386664E-01
 -6.89219833E-02 -1.51230263E-16  1.21950388E-15 -9.75044698E-15 -8.26730765E-01
 -1.23579164E-01 -8.26730765E-01 -1.23579164E-01  6.94539912E-16 -9.50628465E-15
 -5.08064219E-16 -2.93684558E-02 -1.31817300E-15  1.39332990E-14  5.04214579E-16
  9.30663993E-01  6.36816988E-15 -5.39108688E-15  1.07067133E-14 -6.50521303E-16
 -3.57269416E-16 -7.84185561E-17  1.27369616E+00  9.60482740E-01 -1.31146987E-02
 -9.60482740E-01  1.31146987E-02 -4.66240337E-01  3.25586022E-01  4.01354633E-15
  2.35423660E-15 -1.10652222E-01  3.62951567E+00 -2.98106074E-15 -1.87870552E-15
  2.98489519E-01 -1.55913044E+00 -1.53131986E+00 -1.54769297E+00 -1.37383732E-15
  3.30158320E-16  7.56502066E-16  1.37142129E-01 -5.51923422E-01  1.37142129E-01
 -5.51923422E-01
Total SCF Density                          R   N=         190
  2.07683463E+00 -1.80433940E-01  5.04668383E-01  4.78166371E-15  1.15075972E-14
  8.16521815E-01  4.57277077E-16  1.50889865E-15 -1.42999884E-16  5.09863650E-01
  4.44123693E-02 -9.25687987E-02  2.23375244E-16  5.82784664E-16  6.44697107E-01
 -2.21966093E-01  5.20953367E-01 -3.91349069E-14 -9.06587160E-15 -2.75446031E-01
  5.89840303E-01 -1.75689053E-15  9.97574853E-15  6.54599271E-01 -9.79108530E-17
 -3.51224803E-16 -3.04014507E-14  5.24787211E-01 -1.64271979E-15  4.52999629E-15
 -2.65762405E-17  3.06671993E-01 -3.98584478E-15 -6.52334701E-16 -1.12425985E-17
  1.84456592E-01  3.65506446E-02 -8.32998657E-02 -6.00352148E-15 -1.90732250E-15
  4.71549203E-01 -2.16721316E-01 -5.21839584E-15 -4.41374608E-15  3.45399903E-01
 -8.92538552E-03  2.28953917E-03  6.89630891E-15  1.40811297E-15 -1.30410606E-02
  6.10748837E-03  5.56083019E-15  9.39391626E-16 -9.54611862E-03  2.95005634E-04
 -2.03007362E-02  2.68291993E-02  6.00194994E-15  3.88609256E-17  5.69190386E-03
  2.48293496E-02  4.87375157E-15  1.56881147E-16  3.29382284E-03 -4.89902348E-05
  1.66477887E-03 -9.91495075E-03  4.07926442E-03  6.42322610E-15  3.07426959E-16
  5.27869182E-02 -1.09790851E-02  5.14691068E-15 -9.63658879E-17  3.82466708E-02
 -1.02099518E-03  1.17303793E-03  4.64285658E-03  4.45731438E-16 -2.06830442E-18
  2.40715100E-16 -2.15353176E-17 -6.48957314E-17  9.37216773E-18  1.92979448E-16
 -1.29530293E-17 -4.74282862E-17 -4.44095984E-19 -3.63051968E-18 -7.67288497E-18
  1.77603747E-31  3.45760919E-16  6.67469761E-16  4.14170101E-02 -1.17838609E-16
 -7.86368172E-17 -1.87939344E-15  3.32036991E-02 -6.78626140E-17 -3.72670790E-16
  3.51159600E-16  3.06904083E-16  3.19494468E-16  1.22099613E-17  2.10082413E-03
 -1.03237794E-15  8.35854486E-17 -1.71462492E-17  4.98227326E-02  3.27864966E-17
 -9.23799907E-16 -1.21110951E-17  2.99672995E-02 -2.01119452E-16  1.42333802E-16
  5.75059216E-18  3.16123659E-17 -2.10438295E-18 -1.16758517E-17  4.86856571E-03
 -3.44712455E-02  8.01970185E-02  1.55467036E-15 -2.34901547E-01  1.76650830E-01
  2.80942272E-02  1.26258730E-15 -1.41288216E-01  1.25864272E-01 -3.44752113E-03
  7.54894437E-03  1.70118394E-02 -1.23569940E-17  1.19756240E-16 -2.29540525E-02
  1.79345945E-01  1.05385958E-02 -2.45646036E-02  9.96091015E-15 -1.07390277E-01
  9.60020919E-02 -5.15798377E-02  7.88802432E-15 -6.45929364E-02  7.05605729E-02
 -1.95151585E-03  2.40479942E-04  7.60424559E-03 -4.85433221E-18  5.13602143E-16
 -1.04939371E-02  7.34650288E-02  3.71513446E-02 -3.44712455E-02  8.01970185E-02
  1.56977024E-15  2.34901547E-01  1.76650830E-01  2.80942272E-02  1.29010923E-15
  1.41288216E-01  1.25864272E-01 -3.44752113E-03  7.54894437E-03  1.70118394E-02
 -3.22002577E-17  1.86258325E-17  2.29540525E-02 -3.70991264E-02 -2.54874747E-02
  1.79345945E-01  1.05385958E-02 -2.45646036E-02  1.01861001E-14  1.07390277E-01
  9.60020919E-02 -5.15798377E-02  8.07560533E-15  6.45929364E-02  7.05605729E-02
 -1.95151585E-03  2.40479942E-04  7.60424559E-03 -1.39261055E-17  4.78440519E-16
  1.04939371E-02 -2.54874747E-02 -8.08691319E-03  7.34650288E-02  3.71513446E-02
