 B3LYP-D3(BJ)/def2-TZVP opted and yielded
GAUSSIAN             10 MOL ORBITALS    118 PRIMITIVES        4 NUCLEI
  H    1    (CENTRE  1)   0.36700094  0.94679551  0.00000000  CHARGE =  1.0
  F    2    (CENTRE  2)   0.06834512  2.68202628  0.00000000  CHARGE =  9.0
  F    3    (CENTRE  3)   0.06834512 -2.45370779  0.00000000  CHARGE =  9.0
  H    4    (CENTRE  4)  -1.59721313 -3.00166190  0.00000000  CHARGE =  1.0
CENTRE ASSIGNMENTS    1  1  1  1  1  1  1  1  2  2  2  2  2  2  2  2  2  2  2  2
CENTRE ASSIGNMENTS    2  2  2  2  2  2  2  2  2  2  2  2  2  2  2  2  2  2  2  2
CENTRE ASSIGNMENTS    2  2  2  2  2  2  2  2  2  2  2  2  2  2  2  2  2  2  2  3
CENTRE ASSIGNMENTS    3  3  3  3  3  3  3  3  3  3  3  3  3  3  3  3  3  3  3  3
CENTRE ASSIGNMENTS    3  3  3  3  3  3  3  3  3  3  3  3  3  3  3  3  3  3  3  3
CENTRE ASSIGNMENTS    3  3  3  3  3  3  3  3  3  3  4  4  4  4  4  4  4  4
TYPE ASSIGNMENTS      1  1  1  1  1  2  3  4  1  1  1  1  1  1  1  1  1  1  1  2
TYPE ASSIGNMENTS      2  2  2  3  3  3  3  4  4  4  4  2  3  4  2  3  4  5  6  7
TYPE ASSIGNMENTS      8  9 10  5  6  7  8  9 10 11 12 13 17 14 15 18 19 16 20  1
TYPE ASSIGNMENTS      1  1  1  1  1  1  1  1  1  1  2  2  2  2  3  3  3  3  4  4
TYPE ASSIGNMENTS      4  4  2  3  4  2  3  4  5  6  7  8  9 10  5  6  7  8  9 10
TYPE ASSIGNMENTS     11 12 13 17 14 15 18 19 16 20  1  1  1  1  1  2  3  4
EXPONENTS  0.3406134D+02 0.5123575D+01 0.1164663D+01 0.3272304D+00 0.1030724D+00
EXPONENTS  0.8000000D+00 0.8000000D+00 0.8000000D+00 0.3547910D+05 0.5318473D+04
EXPONENTS  0.1210481D+04 0.3428552D+03 0.1120194D+03 0.4071474D+02 0.1603968D+02
EXPONENTS  0.6503819D+01 0.1544048D+01 0.6122345D+00 0.2402798D+00 0.8023390D+02
EXPONENTS  0.1859401D+02 0.5686790D+01 0.1951101D+01 0.8023390D+02 0.1859401D+02
EXPONENTS  0.5686790D+01 0.1951101D+01 0.8023390D+02 0.1859401D+02 0.5686790D+01
EXPONENTS  0.1951101D+01 0.6697021D+00 0.6697021D+00 0.6697021D+00 0.2165130D+00
EXPONENTS  0.2165130D+00 0.2165130D+00 0.3107000D+01 0.3107000D+01 0.3107000D+01
EXPONENTS  0.3107000D+01 0.3107000D+01 0.3107000D+01 0.8550000D+00 0.8550000D+00
EXPONENTS  0.8550000D+00 0.8550000D+00 0.8550000D+00 0.8550000D+00 0.1917000D+01
EXPONENTS  0.1917000D+01 0.1917000D+01 0.1917000D+01 0.1917000D+01 0.1917000D+01
EXPONENTS  0.1917000D+01 0.1917000D+01 0.1917000D+01 0.1917000D+01 0.3547910D+05
EXPONENTS  0.5318473D+04 0.1210481D+04 0.3428552D+03 0.1120194D+03 0.4071474D+02
EXPONENTS  0.1603968D+02 0.6503819D+01 0.1544048D+01 0.6122345D+00 0.2402798D+00
EXPONENTS  0.8023390D+02 0.1859401D+02 0.5686790D+01 0.1951101D+01 0.8023390D+02
EXPONENTS  0.1859401D+02 0.5686790D+01 0.1951101D+01 0.8023390D+02 0.1859401D+02
EXPONENTS  0.5686790D+01 0.1951101D+01 0.6697021D+00 0.6697021D+00 0.6697021D+00
EXPONENTS  0.2165130D+00 0.2165130D+00 0.2165130D+00 0.3107000D+01 0.3107000D+01
EXPONENTS  0.3107000D+01 0.3107000D+01 0.3107000D+01 0.3107000D+01 0.8550000D+00
EXPONENTS  0.8550000D+00 0.8550000D+00 0.8550000D+00 0.8550000D+00 0.8550000D+00
EXPONENTS  0.1917000D+01 0.1917000D+01 0.1917000D+01 0.1917000D+01 0.1917000D+01
EXPONENTS  0.1917000D+01 0.1917000D+01 0.1917000D+01 0.1917000D+01 0.1917000D+01
EXPONENTS  0.3406134D+02 0.5123575D+01 0.1164663D+01 0.3272304D+00 0.1030724D+00
EXPONENTS  0.8000000D+00 0.8000000D+00 0.8000000D+00
MO    1     MO 0.0        OCC NO =    2.0000000  ORB. ENERGY =  -24.723554
  0.26423238D-05  0.47688567D-05  0.70404262D-05 -0.26885155D-03 -0.11726846D-03
  0.10587476D-03 -0.53400997D-05  0.00000000D+00  0.15968637D-04  0.29820584D-04
  0.51032347D-04  0.80068527D-04  0.11022569D-03  0.12009825D-03 -0.10778494D-04
 -0.34729438D-05  0.18269349D-03 -0.30695769D-03  0.36249890D-03  0.35491514D-04
  0.39699411D-04  0.34376483D-04  0.19354743D-04  0.18625489D-03  0.20833739D-03
  0.18040335D-03  0.10157119D-03  0.00000000D+00  0.00000000D+00  0.00000000D+00
  0.00000000D+00 -0.26121305D-04 -0.14564118D-03  0.00000000D+00  0.23878086D-04
 -0.89883079D-04  0.00000000D+00  0.17368690D-03 -0.34848157D-03  0.17479467D-03
  0.10201288D-03  0.00000000D+00  0.00000000D+00 -0.78616042D-04  0.15509516D-03
 -0.76479115D-04 -0.26786075D-04  0.00000000D+00  0.00000000D+00  0.22621069D-04
 -0.71028358D-04  0.00000000D+00 -0.97762104D-04  0.13885565D-03  0.00000000D+00
  0.29898899D-04  0.74229425D-04  0.00000000D+00  0.00000000D+00  0.44026534D+00
  0.82217220D+00  0.14069938D+01  0.22075395D+01  0.30389913D+01  0.33111841D+01
  0.23468398D+01  0.75617642D+00  0.32467150D-01 -0.91214438D-02  0.16547662D-02
 -0.51122095D-02 -0.57183164D-02 -0.49516000D-02 -0.27878635D-02 -0.10575723D-02
 -0.11829587D-02 -0.10243467D-02 -0.57673051D-03  0.00000000D+00  0.00000000D+00
  0.00000000D+00  0.00000000D+00  0.19235365D-02  0.40461161D-03  0.00000000D+00
 -0.10305959D-03  0.90879955D-04  0.00000000D+00  0.24195929D-02 -0.12232145D-02
 -0.11963784D-02  0.24544836D-02  0.00000000D+00  0.00000000D+00 -0.10603478D-02
  0.51694558D-03  0.54340221D-03 -0.10906659D-02  0.00000000D+00  0.00000000D+00
  0.86888977D-03 -0.46551724D-03  0.00000000D+00 -0.78166857D-03  0.21217223D-02
  0.00000000D+00 -0.18250007D-02 -0.72517054D-03  0.00000000D+00  0.00000000D+00
  0.25929792D-03  0.46797997D-03  0.69089484D-03  0.43443812D-03 -0.18320853D-03
  0.16215127D-02  0.45804816D-03  0.00000000D+00
MO    2     MO 0.0        OCC NO =    2.0000000  ORB. ENERGY =  -24.646514
  0.26256040D-03  0.47386807D-03  0.69958764D-03  0.25630960D-03 -0.39317974D-03
 -0.23544832D-03  0.16887126D-02  0.00000000D+00  0.44026585D+00  0.82217315D+00
  0.14069954D+01  0.22075420D+01  0.30389948D+01  0.33111879D+01  0.23467486D+01
  0.75614703D+00  0.32668972D-01 -0.94182202D-02  0.19886672D-02  0.95549528D-03
  0.10687794D-02  0.92547664D-03  0.52106442D-03 -0.52352240D-02 -0.58559156D-02
 -0.50707498D-02 -0.28549476D-02  0.00000000D+00  0.00000000D+00  0.00000000D+00
  0.00000000D+00 -0.40123673D-03  0.20567615D-02  0.00000000D+00  0.58652371D-04
 -0.26480284D-03  0.00000000D+00 -0.10434200D-02  0.22089734D-02 -0.11655534D-02
 -0.11939273D-02  0.00000000D+00  0.00000000D+00  0.48247474D-03 -0.10186672D-02
  0.53619250D-03  0.55918857D-03  0.00000000D+00  0.00000000D+00  0.32556936D-03
  0.11384326D-02  0.00000000D+00 -0.13214362D-02 -0.15518113D-02  0.00000000D+00
  0.34472815D-03 -0.18634865D-02  0.00000000D+00  0.00000000D+00 -0.96537808D-05
 -0.18027924D-04 -0.30851417D-04 -0.48405133D-04 -0.66636532D-04 -0.72604955D-04
 -0.16092952D-03 -0.51853180D-04  0.22913545D-03 -0.33725220D-03  0.19597551D-03
  0.14963358D-03  0.16737423D-03  0.14493256D-03  0.81600333D-04  0.71436136D-04
  0.79905652D-04  0.69191839D-04  0.38956581D-04  0.00000000D+00  0.00000000D+00
  0.00000000D+00  0.00000000D+00 -0.93520353D-04 -0.11047328D-03  0.00000000D+00
  0.97701492D-04  0.13895204D-03  0.00000000D+00  0.29281389D-03 -0.35293152D-03
  0.60117623D-04 -0.17547625D-03  0.00000000D+00  0.00000000D+00 -0.11286245D-03
  0.10791698D-03  0.49454666D-05  0.13409274D-04  0.00000000D+00  0.00000000D+00
  0.26008743D-04 -0.28090421D-05  0.00000000D+00  0.27315402D-04  0.66923291D-04
  0.00000000D+00 -0.10534163D-03 -0.58496165D-04  0.00000000D+00  0.00000000D+00
  0.43423154D-05  0.78369955D-05  0.11570024D-04  0.58865609D-04  0.55827629D-04
  0.81370657D-04  0.32521974D-04  0.00000000D+00
MO    3     MO 0.0        OCC NO =    2.0000000  ORB. ENERGY =   -1.249575
  0.23710178D-02  0.42792045D-02  0.63175360D-02  0.25894278D-02  0.29971238D-03
 -0.54129263D-03 -0.25808084D-02  0.00000000D+00 -0.60811230D-02 -0.11356175D-01
 -0.19433968D-01 -0.30491429D-01 -0.41975777D-01 -0.45735414D-01 -0.51380213D-01
 -0.16555244D-01  0.19243835D-01  0.14709448D-01  0.20537834D-02  0.28850716D-02
  0.32271276D-02  0.27944317D-02  0.15733287D-02 -0.24598100D-01 -0.27514467D-01
 -0.23825306D-01 -0.13414190D-01  0.00000000D+00  0.00000000D+00  0.00000000D+00
  0.00000000D+00  0.89430660D-03 -0.53878764D-02  0.00000000D+00 -0.53510288D-04
  0.13333090D-04  0.00000000D+00 -0.16344586D-02  0.32690306D-02 -0.16345720D-02
 -0.87725444D-03  0.00000000D+00  0.00000000D+00 -0.83264744D-03  0.18258747D-02
 -0.99322722D-03 -0.12168723D-02  0.00000000D+00  0.00000000D+00 -0.63091358D-03
 -0.18269222D-02  0.00000000D+00  0.25763208D-02  0.23615620D-02  0.00000000D+00
 -0.68358000D-03  0.31192047D-02  0.00000000D+00  0.00000000D+00 -0.10605559D+00
 -0.19805319D+00 -0.33893097D+00 -0.53177454D+00 -0.73206310D+00 -0.79763167D+00
 -0.89956142D+00 -0.28984813D+00  0.35006644D+00  0.24031651D+00  0.49512852D-01
 -0.27692678D+00 -0.30975940D+00 -0.26822661D+00 -0.15101769D+00 -0.70985983D-01
 -0.79402128D-01 -0.68755828D-01 -0.38711097D-01  0.00000000D+00  0.00000000D+00
  0.00000000D+00  0.00000000D+00 -0.51093235D-01 -0.11326850D-01  0.00000000D+00
 -0.18443027D-02  0.69193598D-04  0.00000000D+00  0.33512464D-01 -0.14637398D-01
 -0.18875066D-01  0.33558526D-01  0.00000000D+00  0.00000000D+00  0.13023022D-01
 -0.36147551D-02 -0.94082671D-02  0.14563164D-01  0.00000000D+00  0.00000000D+00
 -0.15038912D-01  0.91433559D-02  0.00000000D+00  0.15656630D-01 -0.35132391D-01
  0.00000000D+00  0.29460108D-01  0.77023237D-02  0.00000000D+00  0.00000000D+00
  0.23200760D-01  0.41872650D-01  0.61818025D-01  0.16385573D-01  0.64401966D-03
  0.16392248D-01  0.54193678D-02  0.00000000D+00
MO    4     MO 0.0        OCC NO =    2.0000000  ORB. ENERGY =   -1.173623
  0.23053083D-01  0.41606123D-01  0.61424542D-01  0.16489701D-01  0.10760432D-02
 -0.30778900D-02  0.17222001D-01  0.00000000D+00 -0.10599744D+00 -0.19794460D+00
 -0.33874513D+00 -0.53148297D+00 -0.73166171D+00 -0.79719432D+00 -0.89917673D+00
 -0.28972418D+00  0.35022125D+00  0.23929376D+00  0.50009060D-01  0.47192704D-01
  0.52787902D-01  0.45710058D-01  0.25735804D-01 -0.28320389D+00 -0.31678073D+00
 -0.27430652D+00 -0.15444082D+00  0.00000000D+00  0.00000000D+00  0.00000000D+00
  0.00000000D+00  0.87711284D-02 -0.52672096D-01  0.00000000D+00  0.16627702D-03
 -0.17050140D-02  0.00000000D+00 -0.17241005D-01  0.36079009D-01 -0.18838004D-01
 -0.19033136D-01  0.00000000D+00  0.00000000D+00 -0.71556753D-02  0.15140851D-01
 -0.79851755D-02 -0.77936807D-02  0.00000000D+00  0.00000000D+00 -0.48687696D-02
 -0.18352699D-01  0.00000000D+00  0.19726464D-01  0.25280072D-01  0.00000000D+00
 -0.51201550D-02  0.29778026D-01  0.00000000D+00  0.00000000D+00  0.73847581D-02
  0.13790644D-01  0.23600106D-01  0.37028000D-01  0.50974295D-01  0.55539901D-01
  0.62669565D-01  0.20192792D-01 -0.24291085D-01 -0.17563200D-01 -0.33301908D-02
  0.23812124D-01  0.26635305D-01  0.23064022D-01  0.12985570D-01  0.22935171D-01
  0.25654380D-01  0.22214621D-01  0.12507337D-01  0.00000000D+00  0.00000000D+00
  0.00000000D+00  0.00000000D+00  0.43958043D-02  0.33155013D-02  0.00000000D+00
 -0.59302093D-04  0.37912749D-03  0.00000000D+00 -0.28285249D-02  0.11757624D-02
  0.16527625D-02 -0.28688347D-02  0.00000000D+00  0.00000000D+00 -0.12564480D-02
  0.10158488D-02  0.24059913D-03 -0.13711770D-02  0.00000000D+00  0.00000000D+00
  0.10862332D-02 -0.45858084D-03  0.00000000D+00 -0.10206651D-02  0.26233394D-02
  0.00000000D+00 -0.22380346D-02 -0.12475969D-02  0.00000000D+00  0.00000000D+00
 -0.18237442D-02 -0.32914871D-02 -0.48593350D-02 -0.17102206D-02 -0.10319820D-03
 -0.13810226D-02 -0.37497108D-03  0.00000000D+00
MO    5     MO 0.0        OCC NO =    2.0000000  ORB. ENERGY =   -0.603224
  0.87216869D-02  0.15740870D-01  0.23238784D-01  0.15192135D-01  0.33910342D-02
  0.12576992D-02 -0.47700560D-02  0.00000000D+00  0.76084271D-02  0.14208334D-01
  0.24314905D-01  0.38149501D-01  0.52518200D-01  0.57222089D-01  0.65986922D-01
  0.21261679D-01 -0.29969454D-01 -0.13468580D-01 -0.13202000D-01  0.53353095D-01
  0.59678674D-01  0.51676910D-01  0.29095277D-01 -0.26845658D+00 -0.30028497D+00
 -0.26002253D+00 -0.14639860D+00  0.00000000D+00  0.00000000D+00  0.00000000D+00
  0.00000000D+00  0.83364405D-02 -0.43728665D-01  0.00000000D+00  0.10788653D-02
 -0.41169083D-02  0.00000000D+00 -0.63799161D-02  0.13462670D-01 -0.70827541D-02
 -0.72839609D-02  0.00000000D+00  0.00000000D+00 -0.24935781D-02  0.51255209D-02
 -0.26319428D-02 -0.29644767D-02  0.00000000D+00  0.00000000D+00 -0.14443217D-02
 -0.52825849D-02  0.00000000D+00  0.58516630D-02  0.73618664D-02  0.00000000D+00
 -0.15186979D-02  0.84858883D-02  0.00000000D+00  0.00000000D+00 -0.27463972D-01
 -0.51287512D-01 -0.87768976D-01 -0.13770741D+00 -0.18957379D+00 -0.20655332D+00
 -0.23679976D+00 -0.76299368D-01  0.10135344D+00  0.62786346D-01  0.41737280D-01
  0.16476560D+01  0.18430032D+01  0.15958918D+01  0.89852345D+00  0.69030721D+00
  0.77215049D+00  0.66861994D+00  0.37644825D+00  0.00000000D+00  0.00000000D+00
  0.00000000D+00  0.00000000D+00  0.26172782D+00  0.11346417D+00  0.00000000D+00
  0.31880857D-01  0.13852350D-01  0.00000000D+00 -0.64541637D-01  0.26430564D-01
  0.38111073D-01 -0.70458498D-01  0.00000000D+00  0.00000000D+00 -0.22003746D-01
  0.11677873D-01  0.10325873D-01 -0.17691694D-01  0.00000000D+00  0.00000000D+00
  0.20047739D-01 -0.10791840D-01  0.00000000D+00 -0.14739423D-01  0.50944713D-01
  0.00000000D+00 -0.45403795D-01 -0.18569192D-01  0.00000000D+00  0.00000000D+00
 -0.41123250D-01 -0.74219096D-01 -0.10957219D+00 -0.62123953D-01 -0.52994825D-02
 -0.18615657D-01 -0.44316292D-02  0.00000000D+00
MO    6     MO 0.0        OCC NO =    2.0000000  ORB. ENERGY =   -0.531538
 -0.38512929D-01 -0.69507996D-01 -0.10261703D+00 -0.57756349D-01 -0.29833364D-02
  0.45385945D-02 -0.15109098D-01  0.00000000D+00 -0.27867591D-01 -0.52041249D-01
 -0.89058856D-01 -0.13973121D+00 -0.19235983D+00 -0.20958889D+00 -0.24021357D+00
 -0.77399334D-01  0.10243433D+00  0.65801969D-01  0.37561167D-01 -0.25476434D+00
 -0.28496937D+00 -0.24676045D+00 -0.13893175D+00  0.16071870D+01  0.17977362D+01
  0.15566943D+01  0.87645434D+00  0.00000000D+00  0.00000000D+00  0.00000000D+00
  0.00000000D+00 -0.40605906D-01  0.25335886D+00  0.00000000D+00 -0.50366019D-02
  0.33802375D-01  0.00000000D+00  0.31713194D-01 -0.66059276D-01  0.34346082D-01
  0.32987245D-01  0.00000000D+00  0.00000000D+00  0.10488739D-01 -0.21927502D-01
  0.11438763D-01  0.10637196D-01  0.00000000D+00  0.00000000D+00  0.65719793D-02
  0.24870979D-01  0.00000000D+00 -0.26685989D-01 -0.34171626D-01  0.00000000D+00
  0.69700514D-02 -0.40441311D-01  0.00000000D+00  0.00000000D+00 -0.10563486D-01
 -0.19726750D-01 -0.33758640D-01 -0.52966495D-01 -0.72915894D-01 -0.79446739D-01
 -0.90839279D-01 -0.29269369D-01  0.37640418D-01  0.29555782D-01  0.98194547D-02
  0.58045376D+00  0.64927274D+00  0.56221774D+00  0.31654139D+00 -0.56451571D+00
 -0.63144507D+00 -0.54678041D+00 -0.30784982D+00  0.00000000D+00  0.00000000D+00
  0.00000000D+00  0.00000000D+00  0.92955029D-01 -0.90612510D-01  0.00000000D+00
  0.13682452D-01 -0.18066246D-01  0.00000000D+00 -0.16737178D-01  0.81137701D-02
  0.86234083D-02  0.21508198D-02  0.00000000D+00  0.00000000D+00 -0.59954963D-02
  0.11561638D-02  0.48393325D-02  0.75895516D-02  0.00000000D+00  0.00000000D+00
  0.90526736D-02 -0.18125114D-02  0.00000000D+00 -0.16787977D-01  0.10971513D-02
  0.00000000D+00 -0.10370044D-01  0.43403829D-02  0.00000000D+00  0.00000000D+00
 -0.82626980D-02 -0.14912488D-01 -0.22015816D-01 -0.12568892D-01 -0.21241455D-02
 -0.16064257D-04 -0.95910554D-02  0.00000000D+00
MO    7     MO 0.0        OCC NO =    2.0000000  ORB. ENERGY =   -0.463573
  0.00000000D+00  0.00000000D+00  0.00000000D+00  0.00000000D+00  0.00000000D+00
  0.00000000D+00  0.00000000D+00  0.47211856D-02  0.00000000D+00  0.00000000D+00
  0.00000000D+00  0.00000000D+00  0.00000000D+00  0.00000000D+00  0.00000000D+00
  0.00000000D+00  0.00000000D+00  0.00000000D+00  0.00000000D+00  0.00000000D+00
  0.00000000D+00  0.00000000D+00  0.00000000D+00  0.00000000D+00  0.00000000D+00
  0.00000000D+00  0.00000000D+00  0.98350542D-01  0.11001105D+00  0.95260679D-01
  0.53633931D-01  0.00000000D+00  0.00000000D+00  0.13953712D-01  0.00000000D+00
  0.00000000D+00  0.38207041D-02  0.00000000D+00  0.00000000D+00  0.00000000D+00
  0.00000000D+00  0.83917552D-03 -0.37184501D-02  0.00000000D+00  0.00000000D+00
  0.00000000D+00  0.00000000D+00  0.43830484D-04 -0.23696797D-02  0.00000000D+00
  0.00000000D+00 -0.35867136D-03  0.00000000D+00  0.00000000D+00 -0.34028563D-03
  0.00000000D+00  0.00000000D+00  0.14162997D-02 -0.73865005D-04  0.00000000D+00
  0.00000000D+00  0.00000000D+00  0.00000000D+00  0.00000000D+00  0.00000000D+00
  0.00000000D+00  0.00000000D+00  0.00000000D+00  0.00000000D+00  0.00000000D+00
  0.00000000D+00  0.00000000D+00  0.00000000D+00  0.00000000D+00  0.00000000D+00
  0.00000000D+00  0.00000000D+00  0.00000000D+00  0.21395959D+01  0.23932678D+01
  0.20723766D+01  0.11667952D+01  0.00000000D+00  0.00000000D+00  0.34590601D+00
  0.00000000D+00  0.00000000D+00  0.62272132D-01  0.00000000D+00  0.00000000D+00
  0.00000000D+00  0.00000000D+00 -0.57389463D-01 -0.17724598D-01  0.00000000D+00
  0.00000000D+00  0.00000000D+00  0.00000000D+00 -0.36585463D-01 -0.46151810D-02
  0.00000000D+00  0.00000000D+00 -0.15263318D-01  0.00000000D+00  0.00000000D+00
  0.46435897D-01  0.00000000D+00  0.00000000D+00 -0.64594312D-03  0.41890572D-01
  0.00000000D+00  0.00000000D+00  0.00000000D+00  0.00000000D+00  0.00000000D+00
  0.00000000D+00  0.00000000D+00  0.29053942D-01
MO    8     MO 0.0        OCC NO =    2.0000000  ORB. ENERGY =   -0.460623
 -0.12893710D-01 -0.23270521D-01 -0.34355066D-01 -0.22322655D-01  0.14220118D-02
 -0.14793704D-02 -0.22067617D-01  0.00000000D+00 -0.68715570D-02 -0.12832269D-01
 -0.21960026D-01 -0.34454753D-01 -0.47431855D-01 -0.51680176D-01 -0.59294056D-01
 -0.19105167D-01  0.24917984D-01  0.16623778D-01  0.12590562D-01 -0.25327779D+00
 -0.28330658D+00 -0.24532061D+00 -0.13812109D+00  0.76917648D+00  0.86037055D+00
  0.74501139D+00  0.41945838D+00  0.00000000D+00  0.00000000D+00  0.00000000D+00
  0.00000000D+00 -0.38348591D-01  0.11865028D+00  0.00000000D+00 -0.70968396D-02
  0.16558669D-01  0.00000000D+00  0.12794985D-01 -0.27860872D-01  0.15065887D-01
  0.20421164D-01  0.00000000D+00  0.00000000D+00  0.25591408D-02 -0.55282138D-02
  0.29690729D-02  0.52021450D-02  0.00000000D+00  0.00000000D+00  0.30858665D-02
  0.10018787D-01  0.00000000D+00 -0.12553416D-01 -0.13566689D-01  0.00000000D+00
  0.32958168D-02 -0.16489671D-01  0.00000000D+00  0.00000000D+00  0.35521640D-03
  0.66334781D-03  0.11351956D-02  0.17810946D-02  0.24519294D-02  0.26715410D-02
  0.32141896D-02  0.10356456D-02 -0.17114659D-02 -0.21549800D-02  0.32394528D-02
 -0.62669338D+00 -0.70099457D+00 -0.60700466D+00 -0.34175745D+00  0.18868635D+01
  0.21105713D+01  0.18275842D+01  0.10289715D+01  0.00000000D+00  0.00000000D+00
  0.00000000D+00  0.00000000D+00 -0.10103482D+00  0.30805479D+00  0.00000000D+00
 -0.19252444D-01  0.54849781D-01  0.00000000D+00  0.16727404D-01 -0.18672531D-01
  0.19451266D-02 -0.47281662D-01  0.00000000D+00  0.00000000D+00  0.85617637D-02
 -0.53293355D-02 -0.32324281D-02 -0.30009834D-01  0.00000000D+00  0.00000000D+00
 -0.14144423D-01 -0.25129647D-02  0.00000000D+00  0.37951549D-01  0.24827052D-01
  0.00000000D+00  0.44817191D-02 -0.17288158D-01  0.00000000D+00  0.00000000D+00
 -0.82095225D-04 -0.14816517D-03 -0.21874131D-03 -0.18970338D-02 -0.87472044D-03
 -0.91327565D-02  0.25015116D-01  0.00000000D+00
MO    9     MO 0.0        OCC NO =    2.0000000  ORB. ENERGY =   -0.392286
 -0.31453557D-03 -0.56767269D-03 -0.83807460D-03  0.14511830D-02  0.21142094D-02
  0.27753102D-01  0.40909057D-02  0.00000000D+00 -0.22616728D-03 -0.42235541D-03
 -0.72278223D-03 -0.11340280D-02 -0.15611504D-02 -0.17009776D-02 -0.15220265D-02
 -0.49041291D-03 -0.85466063D-03  0.41832902D-02 -0.41292978D-02  0.20901846D+01
  0.23379982D+01  0.20245176D+01  0.11398495D+01  0.39165599D+00  0.43809098D+00
  0.37935140D+00  0.21358347D+00  0.00000000D+00  0.00000000D+00  0.00000000D+00
  0.00000000D+00  0.33649948D+00  0.63169298D-01  0.00000000D+00  0.62768773D-01
  0.12788379D-01  0.00000000D+00  0.95441624D-02 -0.92459813D-02 -0.29818110D-03
 -0.53424734D-01  0.00000000D+00  0.00000000D+00  0.63803968D-02 -0.71219096D-02
  0.74151280D-03 -0.36014146D-01  0.00000000D+00  0.00000000D+00 -0.10858072D-01
  0.91427083D-02  0.00000000D+00  0.45656023D-01 -0.24195715D-01  0.00000000D+00
 -0.13081807D-01 -0.32324102D-02  0.00000000D+00  0.00000000D+00 -0.24300609D-03
 -0.45380099D-03 -0.77659545D-03 -0.12184596D-02 -0.16773825D-02 -0.18276203D-02
 -0.20542243D-02 -0.66189264D-03  0.82833394D-03  0.16304354D-02 -0.26549570D-02
 -0.72362444D-01 -0.80941783D-01 -0.70089044D-01 -0.39461728D-01  0.13226837D+00
  0.14795020D+00  0.12811292D+00  0.72130489D-01  0.00000000D+00  0.00000000D+00
  0.00000000D+00  0.00000000D+00 -0.11248145D-01  0.24395398D-01  0.00000000D+00
  0.87033343D-03  0.26051996D-02  0.00000000D+00  0.53706833D-02 -0.26387292D-02
 -0.27319541D-02 -0.17576450D-02  0.00000000D+00  0.00000000D+00 -0.88433649D-03
 -0.56183233D-03  0.14461688D-02 -0.10241807D-02  0.00000000D+00  0.00000000D+00
 -0.10675074D-02 -0.74989612D-03  0.00000000D+00  0.41264115D-02  0.30305888D-02
  0.00000000D+00 -0.92388923D-03 -0.78090039D-03  0.00000000D+00  0.00000000D+00
  0.43680437D-03  0.78834297D-03  0.11638577D-02  0.71288670D-02 -0.25351400D-02
  0.23523327D-02  0.30826622D-02  0.00000000D+00
MO   10     MO 0.0        OCC NO =    2.0000000  ORB. ENERGY =   -0.391973
  0.00000000D+00  0.00000000D+00  0.00000000D+00  0.00000000D+00  0.00000000D+00
  0.00000000D+00  0.00000000D+00  0.28521824D-01  0.00000000D+00  0.00000000D+00
  0.00000000D+00  0.00000000D+00  0.00000000D+00  0.00000000D+00  0.00000000D+00
  0.00000000D+00  0.00000000D+00  0.00000000D+00  0.00000000D+00  0.00000000D+00
  0.00000000D+00  0.00000000D+00  0.00000000D+00  0.00000000D+00  0.00000000D+00
  0.00000000D+00  0.00000000D+00  0.21295124D+01  0.23819888D+01  0.20626099D+01
  0.11612963D+01  0.00000000D+00  0.00000000D+00  0.34251146D+00  0.00000000D+00
  0.00000000D+00  0.64143565D-01  0.00000000D+00  0.00000000D+00  0.00000000D+00
  0.00000000D+00  0.10048815D-01 -0.56329986D-01  0.00000000D+00  0.00000000D+00
  0.00000000D+00  0.00000000D+00  0.57483657D-02 -0.37626995D-01  0.00000000D+00
  0.00000000D+00 -0.13178916D-01  0.00000000D+00  0.00000000D+00 -0.10924658D-01
  0.00000000D+00  0.00000000D+00  0.50461406D-01 -0.21692403D-01  0.00000000D+00
  0.00000000D+00  0.00000000D+00  0.00000000D+00  0.00000000D+00  0.00000000D+00
  0.00000000D+00  0.00000000D+00  0.00000000D+00  0.00000000D+00  0.00000000D+00
  0.00000000D+00  0.00000000D+00  0.00000000D+00  0.00000000D+00  0.00000000D+00
  0.00000000D+00  0.00000000D+00  0.00000000D+00 -0.12805806D+00 -0.14324071D+00
 -0.12403488D+00 -0.69834465D-01  0.00000000D+00  0.00000000D+00 -0.23359278D-01
  0.00000000D+00  0.00000000D+00 -0.18770054D-02  0.00000000D+00  0.00000000D+00
  0.00000000D+00  0.00000000D+00  0.43653518D-02 -0.99792153D-03  0.00000000D+00
  0.00000000D+00  0.00000000D+00  0.00000000D+00  0.17359033D-02  0.33121008D-02
  0.00000000D+00  0.00000000D+00  0.21899674D-03  0.00000000D+00  0.00000000D+00
 -0.26740529D-02  0.00000000D+00  0.00000000D+00  0.20170627D-02 -0.20729130D-02
  0.00000000D+00  0.00000000D+00  0.00000000D+00  0.00000000D+00  0.00000000D+00
  0.00000000D+00  0.00000000D+00 -0.25392362D-02
END DATA
 TOTAL ENERGY =     -200.990296500202 THE VIRIAL(-V/T)=   2.00344586
