 # b3lyp/6-31G* opt out=wfn                              
GAUSSIAN              6 MOL ORBITALS     56 PRIMITIVES        2 NUCLEI
  Li   1    (CENTRE  1)   0.00000000  0.00000000 -2.19878554  CHARGE =  3.0
  F    2    (CENTRE  2)   0.00000000  0.00000000  0.73292851  CHARGE =  9.0
CENTRE ASSIGNMENTS    1  1  1  1  1  1  1  1  1  1  1  1  1  1  1  1  1  1  1  1
CENTRE ASSIGNMENTS    1  1  1  1  1  1  1  1  2  2  2  2  2  2  2  2  2  2  2  2
CENTRE ASSIGNMENTS    2  2  2  2  2  2  2  2  2  2  2  2  2  2  2  2
TYPE ASSIGNMENTS      1  1  1  1  1  1  1  1  1  2  2  2  3  3  3  4  4  4  1  2
TYPE ASSIGNMENTS      3  4  5  6  7  8  9 10  1  1  1  1  1  1  1  1  1  2  2  2
TYPE ASSIGNMENTS      3  3  3  4  4  4  1  2  3  4  5  6  7  8  9 10
EXPONENTS  0.6424189D+03 0.9679852D+02 0.2209112D+02 0.6201070D+01 0.1935118D+01
EXPONENTS  0.6367358D+00 0.2324918D+01 0.6324304D+00 0.7905343D-01 0.2324918D+01
EXPONENTS  0.6324304D+00 0.7905343D-01 0.2324918D+01 0.6324304D+00 0.7905343D-01
EXPONENTS  0.2324918D+01 0.6324304D+00 0.7905343D-01 0.3596197D-01 0.3596197D-01
EXPONENTS  0.3596197D-01 0.3596197D-01 0.2000000D+00 0.2000000D+00 0.2000000D+00
EXPONENTS  0.2000000D+00 0.2000000D+00 0.2000000D+00 0.7001713D+04 0.1051366D+04
EXPONENTS  0.2392857D+03 0.6739745D+02 0.2151996D+02 0.7403101D+01 0.2084795D+02
EXPONENTS  0.4808308D+01 0.1344070D+01 0.2084795D+02 0.4808308D+01 0.1344070D+01
EXPONENTS  0.2084795D+02 0.4808308D+01 0.1344070D+01 0.2084795D+02 0.4808308D+01
EXPONENTS  0.1344070D+01 0.3581514D+00 0.3581514D+00 0.3581514D+00 0.3581514D+00
EXPONENTS  0.8000000D+00 0.8000000D+00 0.8000000D+00 0.8000000D+00 0.8000000D+00
EXPONENTS  0.8000000D+00
MO    1     MO 0.0        OCC NO =    2.0000000  ORB. ENERGY =  -24.531601
 -0.54821480D-04 -0.10029947D-03 -0.15797000D-03 -0.19366518D-03 -0.15468469D-03
 -0.49377055D-04  0.65524717D-04  0.13449818D-03 -0.16027262D-03  0.00000000D+00
  0.00000000D+00  0.00000000D+00  0.00000000D+00  0.00000000D+00  0.00000000D+00
 -0.34897396D-04 -0.10811520D-03 -0.53873160D-04  0.96651682D-05  0.00000000D+00
  0.00000000D+00  0.11456019D-05  0.25862807D-04  0.25862807D-04 -0.44880510D-05
  0.00000000D+00  0.00000000D+00  0.00000000D+00  0.98559898D+00  0.18182325D+01
  0.29450624D+01  0.38815184D+01  0.33320809D+01  0.11326122D+01 -0.14228116D-01
 -0.63911748D-02  0.18935757D-01  0.00000000D+00  0.00000000D+00  0.00000000D+00
  0.00000000D+00  0.00000000D+00  0.00000000D+00 -0.80973963D-03 -0.62500725D-03
 -0.26532368D-03  0.57088935D-02  0.00000000D+00  0.00000000D+00 -0.11192202D-03
 -0.95196943D-02 -0.95196943D-02 -0.94398345D-02  0.00000000D+00  0.00000000D+00
  0.00000000D+00
MO    2     MO 0.0        OCC NO =    2.0000000  ORB. ENERGY =   -1.985314
  0.19395457D+00  0.35485252D+00  0.55888684D+00  0.68517390D+00  0.54726364D+00
  0.17469257D+00 -0.29002649D-02 -0.59531787D-02  0.70940110D-02  0.00000000D+00
  0.00000000D+00  0.00000000D+00  0.00000000D+00  0.00000000D+00  0.00000000D+00
 -0.55460328D-03 -0.17182097D-02 -0.85617367D-03 -0.15925141D-02  0.00000000D+00
  0.00000000D+00  0.20647403D-03 -0.78697447D-03 -0.78697447D-03 -0.12106195D-02
  0.00000000D+00  0.00000000D+00  0.00000000D+00 -0.58130356D-02 -0.10723885D-01
 -0.17369897D-01 -0.22893089D-01 -0.19652521D-01 -0.66801156D-02 -0.70379337D-02
 -0.31613929D-02  0.93665675D-02  0.00000000D+00  0.00000000D+00  0.00000000D+00
  0.00000000D+00  0.00000000D+00  0.00000000D+00 -0.40329111D-01 -0.31128508D-01
 -0.13214455D-01  0.54153193D-02  0.00000000D+00  0.00000000D+00 -0.30064511D-02
 -0.15162280D-02 -0.15162280D-02  0.22726728D-02  0.00000000D+00  0.00000000D+00
  0.00000000D+00
MO    3     MO 0.0        OCC NO =    2.0000000  ORB. ENERGY =   -0.984676
 -0.15209976D-01 -0.27827643D-01 -0.43828077D-01 -0.53731546D-01 -0.42916581D-01
 -0.13699445D-01 -0.11604239D-02 -0.23819240D-02  0.28383820D-02  0.00000000D+00
  0.00000000D+00  0.00000000D+00  0.00000000D+00  0.00000000D+00  0.00000000D+00
  0.13312788D-02  0.41244187D-02  0.20551733D-02  0.35376152D-03  0.00000000D+00
  0.00000000D+00 -0.15155941D-03 -0.41469614D-03 -0.41469614D-03 -0.15230915D-05
  0.00000000D+00  0.00000000D+00  0.00000000D+00 -0.23410583D+00 -0.43187832D+00
 -0.69953022D+00 -0.92196329D+00 -0.79145735D+00 -0.26902536D+00 -0.38876582D+00
 -0.17463102D+00  0.51739636D+00  0.00000000D+00  0.00000000D+00  0.00000000D+00
  0.00000000D+00  0.00000000D+00  0.00000000D+00 -0.12529969D+00 -0.96714071D-01
 -0.41056376D-01  0.17480793D+00  0.00000000D+00  0.00000000D+00 -0.12000726D-01
  0.71050386D-02  0.71050386D-02  0.20476975D-01  0.00000000D+00  0.00000000D+00
  0.00000000D+00
MO    4     MO 0.0        OCC NO =    2.0000000  ORB. ENERGY =   -0.277457
  0.21682548D-01  0.39669635D-01  0.62479018D-01  0.76596888D-01  0.61179638D-01
  0.19529213D-01  0.80137151D-02  0.16449214D-01 -0.19601445D-01  0.00000000D+00
  0.00000000D+00  0.00000000D+00  0.00000000D+00  0.00000000D+00  0.00000000D+00
 -0.63061513D-02 -0.19537011D-01 -0.97351762D-02  0.56710094D-02  0.00000000D+00
  0.00000000D+00  0.34032291D-02 -0.81462848D-03 -0.81462848D-03  0.23076404D-02
  0.00000000D+00  0.00000000D+00  0.00000000D+00 -0.20713959D-01 -0.38213103D-01
 -0.61895258D-01 -0.81576399D-01 -0.70029079D-01 -0.23803681D-01 -0.21403639D-01
 -0.96143723D-02  0.28485439D-01  0.00000000D+00  0.00000000D+00  0.00000000D+00
  0.00000000D+00  0.00000000D+00  0.00000000D+00  0.28788016D+01  0.22220375D+01
  0.94328372D+00  0.36571232D-01  0.00000000D+00  0.00000000D+00  0.18820181D+00
 -0.43786490D-02 -0.43786490D-02 -0.36800776D-01  0.00000000D+00  0.00000000D+00
  0.00000000D+00
MO    5     MO 0.0        OCC NO =    2.0000000  ORB. ENERGY =   -0.264013
  0.00000000D+00  0.00000000D+00  0.00000000D+00  0.00000000D+00  0.00000000D+00
  0.00000000D+00  0.00000000D+00  0.00000000D+00  0.00000000D+00  0.70600900D-02
  0.21872779D-01  0.10899076D-01  0.00000000D+00  0.00000000D+00  0.00000000D+00
  0.00000000D+00  0.00000000D+00  0.00000000D+00  0.00000000D+00 -0.28110946D-03
  0.00000000D+00  0.00000000D+00  0.00000000D+00  0.00000000D+00  0.00000000D+00
  0.00000000D+00  0.92994166D-02  0.00000000D+00  0.00000000D+00  0.00000000D+00
  0.00000000D+00  0.00000000D+00  0.00000000D+00  0.00000000D+00  0.00000000D+00
  0.00000000D+00  0.00000000D+00  0.28534123D+01  0.22024406D+01  0.93496455D+00
  0.00000000D+00  0.00000000D+00  0.00000000D+00  0.00000000D+00  0.00000000D+00
  0.00000000D+00  0.00000000D+00  0.17443779D+00  0.00000000D+00  0.00000000D+00
  0.00000000D+00  0.00000000D+00  0.00000000D+00  0.00000000D+00 -0.20511174D-01
  0.00000000D+00
MO    6     MO 0.0        OCC NO =    2.0000000  ORB. ENERGY =   -0.264013
  0.00000000D+00  0.00000000D+00  0.00000000D+00  0.00000000D+00  0.00000000D+00
  0.00000000D+00  0.00000000D+00  0.00000000D+00  0.00000000D+00  0.00000000D+00
  0.00000000D+00  0.00000000D+00  0.70600900D-02  0.21872779D-01  0.10899076D-01
  0.00000000D+00  0.00000000D+00  0.00000000D+00  0.00000000D+00  0.00000000D+00
 -0.28110946D-03  0.00000000D+00  0.00000000D+00  0.00000000D+00  0.00000000D+00
  0.00000000D+00  0.00000000D+00  0.92994166D-02  0.00000000D+00  0.00000000D+00
  0.00000000D+00  0.00000000D+00  0.00000000D+00  0.00000000D+00  0.00000000D+00
  0.00000000D+00  0.00000000D+00  0.00000000D+00  0.00000000D+00  0.00000000D+00
  0.28534123D+01  0.22024406D+01  0.93496455D+00  0.00000000D+00  0.00000000D+00
  0.00000000D+00  0.00000000D+00  0.00000000D+00  0.17443779D+00  0.00000000D+00
  0.00000000D+00  0.00000000D+00  0.00000000D+00  0.00000000D+00  0.00000000D+00
 -0.20511174D-01
END DATA
 THE  HF ENERGY =   -107.417599821192 THE VIRIAL(-V/T)=   2.00706772
