Title Card Required                                                     
Freq      RB3LYP                                                      6-31G(d)            
Number of atoms                            I                7
Info1-9                                    I   N=           9
          15          14        1002           0           0         100
           6          18        -502
Charge                                     I                0
Multiplicity                               I                1
Number of electrons                        I               24
Number of alpha electrons                  I               12
Number of beta electrons                   I               12
Number of basis functions                  I               53
Number of independent functions            I               53
Number of point charges in /Mol/           I                0
Number of translation vectors              I                0
Atomic numbers                             I   N=           7
           6           6           8           1           1           1
           1
Nuclear charges                            R   N=           7
  6.00000000E+00  6.00000000E+00  8.00000000E+00  1.00000000E+00  1.00000000E+00
  1.00000000E+00  1.00000000E+00
Current cartesian coordinates              R   N=          21
  1.20612467E-15  1.38802306E+00 -7.02980642E-01 -2.09351385E-15 -1.38802306E+00
 -7.02980642E-01  8.24762105E-16 -1.42635849E-15  1.61634487E+00  1.73941065E+00
  2.40979288E+00 -1.12374781E+00 -1.73941065E+00  2.40979288E+00 -1.12374781E+00
  1.73941065E+00 -2.40979288E+00 -1.12374781E+00 -1.73941065E+00 -2.40979288E+00
 -1.12374781E+00
Force Field                                I                0
Int Atom Types                             I   N=           7
           0           0           0           0           0           0
           0
MM charges                                 R   N=           7
  0.00000000E+00  0.00000000E+00  0.00000000E+00  0.00000000E+00  0.00000000E+00
  0.00000000E+00  0.00000000E+00
Integer atomic weights                     I   N=           7
          12          12          16           1           1           1
           1
Real atomic weights                        R   N=           7
  1.20000000E+01  1.20000000E+01  1.59949146E+01  1.00782504E+00  1.00782504E+00
  1.00782504E+00  1.00782504E+00
Atom fragment info                         I   N=           7
           0           0           0           0           0           0
           0
Atom residue num                           I   N=           7
           0           0           0           0           0           0
           0
Nuclear spins                              I   N=           7
           0           0           0           1           1           1
           1
Nuclear ZEff                               R   N=           7
 -3.60000000E+00 -3.60000000E+00 -5.60000000E+00 -1.00000000E+00 -1.00000000E+00
 -1.00000000E+00 -1.00000000E+00
Nuclear ZNuc                               R   N=           7
  6.00000000E+00  6.00000000E+00  8.00000000E+00  1.00000000E+00  1.00000000E+00
  1.00000000E+00  1.00000000E+00
Nuclear QMom                               R   N=           7
  0.00000000E+00  0.00000000E+00  0.00000000E+00  0.00000000E+00  0.00000000E+00
  0.00000000E+00  0.00000000E+00
Nuclear GFac                               R   N=           7
  0.00000000E+00  0.00000000E+00  0.00000000E+00  2.79284600E+00  2.79284600E+00
  2.79284600E+00  2.79284600E+00
MicOpt                                     I   N=           7
          -1          -1          -1          -1          -1          -1
          -1
Number of contracted shells                I               20
Number of primitive shells                 I               49
Pure/Cartesian d shells                    I                1
Pure/Cartesian f shells                    I                0
Highest angular momentum                   I                2
Largest degree of contraction              I                6
Shell types                                I   N=          20
           0          -1          -1           2           0          -1
          -1           2           0          -1          -1           2
           0           0           0           0           0           0
           0           0
Number of primitives per shell             I   N=          20
           6           3           1           1           6           3
           1           1           6           3           1           1
           3           1           3           1           3           1
           3           1
Shell to atom map                          I   N=          20
           1           1           1           1           2           2
           2           2           3           3           3           3
           4           4           5           5           6           6
           7           7
Primitive exponents                        R   N=          49
  3.04752488E+03  4.57369518E+02  1.03948685E+02  2.92101553E+01  9.28666296E+00
  3.16392696E+00  7.86827235E+00  1.88128854E+00  5.44249258E-01  1.68714478E-01
  8.00000000E-01  3.04752488E+03  4.57369518E+02  1.03948685E+02  2.92101553E+01
  9.28666296E+00  3.16392696E+00  7.86827235E+00  1.88128854E+00  5.44249258E-01
  1.68714478E-01  8.00000000E-01  5.48467166E+03  8.25234946E+02  1.88046958E+02
  5.29645000E+01  1.68975704E+01  5.79963534E+00  1.55396162E+01  3.59993359E+00
  1.01376175E+00  2.70005823E-01  8.00000000E-01  1.87311370E+01  2.82539436E+00
  6.40121692E-01  1.61277759E-01  1.87311370E+01  2.82539436E+00  6.40121692E-01
  1.61277759E-01  1.87311370E+01  2.82539436E+00  6.40121692E-01  1.61277759E-01
  1.87311370E+01  2.82539436E+00  6.40121692E-01  1.61277759E-01
Contraction coefficients                   R   N=          49
  1.83473713E-03  1.40373228E-02  6.88426223E-02  2.32184443E-01  4.67941348E-01
  3.62311985E-01 -1.19332420E-01 -1.60854152E-01  1.14345644E+00  1.00000000E+00
  1.00000000E+00  1.83473713E-03  1.40373228E-02  6.88426223E-02  2.32184443E-01
  4.67941348E-01  3.62311985E-01 -1.19332420E-01 -1.60854152E-01  1.14345644E+00
  1.00000000E+00  1.00000000E+00  1.83107443E-03  1.39501722E-02  6.84450781E-02
  2.32714336E-01  4.70192898E-01  3.58520853E-01 -1.10777550E-01 -1.48026263E-01
  1.13076702E+00  1.00000000E+00  1.00000000E+00  3.34946043E-02  2.34726953E-01
  8.13757326E-01  1.00000000E+00  3.34946043E-02  2.34726953E-01  8.13757326E-01
  1.00000000E+00  3.34946043E-02  2.34726953E-01  8.13757326E-01  1.00000000E+00
  3.34946043E-02  2.34726953E-01  8.13757326E-01  1.00000000E+00
P(S=P) Contraction coefficients            R   N=          49
  0.00000000E+00  0.00000000E+00  0.00000000E+00  0.00000000E+00  0.00000000E+00
  0.00000000E+00  6.89990666E-02  3.16423961E-01  7.44308291E-01  1.00000000E+00
  0.00000000E+00  0.00000000E+00  0.00000000E+00  0.00000000E+00  0.00000000E+00
  0.00000000E+00  0.00000000E+00  6.89990666E-02  3.16423961E-01  7.44308291E-01
  1.00000000E+00  0.00000000E+00  0.00000000E+00  0.00000000E+00  0.00000000E+00
  0.00000000E+00  0.00000000E+00  0.00000000E+00  7.08742682E-02  3.39752839E-01
  7.27158577E-01  1.00000000E+00  0.00000000E+00  0.00000000E+00  0.00000000E+00
  0.00000000E+00  0.00000000E+00  0.00000000E+00  0.00000000E+00  0.00000000E+00
  0.00000000E+00  0.00000000E+00  0.00000000E+00  0.00000000E+00  0.00000000E+00
  0.00000000E+00  0.00000000E+00  0.00000000E+00  0.00000000E+00
Coordinates of each shell                  R   N=          60
 -9.86076132E-32  1.38802306E+00 -7.02980642E-01 -9.86076132E-32  1.38802306E+00
 -7.02980642E-01 -9.86076132E-32  1.38802306E+00 -7.02980642E-01 -9.86076132E-32
  1.38802306E+00 -7.02980642E-01 -1.69978186E-16 -1.38802306E+00 -7.02980642E-01
 -1.69978186E-16 -1.38802306E+00 -7.02980642E-01 -1.69978186E-16 -1.38802306E+00
 -7.02980642E-01 -1.69978186E-16 -1.38802306E+00 -7.02980642E-01 -9.86076132E-32
  0.00000000E+00  1.61634487E+00 -9.86076132E-32  0.00000000E+00  1.61634487E+00
 -9.86076132E-32  0.00000000E+00  1.61634487E+00 -9.86076132E-32  0.00000000E+00
  1.61634487E+00  1.73941065E+00  2.40979288E+00 -1.12374781E+00  1.73941065E+00
  2.40979288E+00 -1.12374781E+00 -1.73941065E+00  2.40979288E+00 -1.12374781E+00
 -1.73941065E+00  2.40979288E+00 -1.12374781E+00  1.73941065E+00 -2.40979288E+00
 -1.12374781E+00  1.73941065E+00 -2.40979288E+00 -1.12374781E+00 -1.73941065E+00
 -2.40979288E+00 -1.12374781E+00 -1.73941065E+00 -2.40979288E+00 -1.12374781E+00
Constraint Structure                       R   N=          21
 -9.86076132E-32  1.38802306E+00 -7.02980642E-01 -1.69978186E-16 -1.38802306E+00
 -7.02980642E-01 -9.86076132E-32  0.00000000E+00  1.61634487E+00  1.73941065E+00
  2.40979288E+00 -1.12374781E+00 -1.73941065E+00  2.40979288E+00 -1.12374781E+00
  1.73941065E+00 -2.40979288E+00 -1.12374781E+00 -1.73941065E+00 -2.40979288E+00
 -1.12374781E+00
Num ILSW                                   I              100
ILSW                                       I   N=         100
           0           1           0           0           2           0
           0           0           0           0         402          -1
           0           0           0           0           2           0
           0           0           1           0           1           0
           1           0           0           0           0           0
           0           0      100000           0          -1           0
           0           0           0           0           0           0
           0           0           0           1           0           0
           0           0           1           0           0           0
           0           0           4          41           0           0
           0           0           5           0           0           0
           0           0           0           0           0           0
           0           0           0           0           0           0
           0           0           0           0           0           0
           0           0           0           0           0           0
           0           0           0           0           0           0
           0           0           0           0
Num RLSW                                   I               41
RLSW                                       R   N=          41
  8.00000000E-01  7.20000000E-01  1.00000000E+00  8.10000000E-01  2.00000000E-01
  0.00000000E+00  0.00000000E+00  1.00000000E+00  0.00000000E+00  0.00000000E+00
  0.00000000E+00  0.00000000E+00  1.00000000E+00  0.00000000E+00  0.00000000E+00
  0.00000000E+00  0.00000000E+00  1.00000000E+00  0.00000000E+00  0.00000000E+00
  0.00000000E+00  0.00000000E+00  1.00000000E+00  0.00000000E+00  0.00000000E+00
  0.00000000E+00  0.00000000E+00  1.00000000E+00  0.00000000E+00  0.00000000E+00
  0.00000000E+00  0.00000000E+00  1.00000000E+00  0.00000000E+00  0.00000000E+00
  0.00000000E+00  0.00000000E+00  0.00000000E+00  1.00000000E+00  1.00000000E+00
  0.00000000E+00
MxBond                                     I                4
NBond                                      I   N=           7
           4           4           2           1           1           1
           1
IBond                                      I   N=          28
           2           3           4           5           1           3
           6           7           1           2           0           0
           1           0           0           0           1           0
           0           0           2           0           0           0
           2           0           0           0
RBond                                      R   N=          28
  1.00000000E+00  1.00000000E+00  1.00000000E+00  1.00000000E+00  1.00000000E+00
  1.00000000E+00  1.00000000E+00  1.00000000E+00  1.00000000E+00  1.00000000E+00
  0.00000000E+00  0.00000000E+00  1.00000000E+00  0.00000000E+00  0.00000000E+00
  0.00000000E+00  1.00000000E+00  0.00000000E+00  0.00000000E+00  0.00000000E+00
  1.00000000E+00  0.00000000E+00  0.00000000E+00  0.00000000E+00  1.00000000E+00
  0.00000000E+00  0.00000000E+00  0.00000000E+00
Virial Ratio                               R      2.009023018555388E+00
SCF Energy                                 R     -1.537862618175515E+02
Total Energy                               R     -1.537862618175515E+02
RMS Force                                  R      6.288093801508246E-05
RMS Density                                R      7.963263928115582E-10
External E-field                           R   N=          35
  0.00000000E+00  0.00000000E+00  0.00000000E+00  0.00000000E+00  0.00000000E+00
  0.00000000E+00  0.00000000E+00  0.00000000E+00  0.00000000E+00  0.00000000E+00
  0.00000000E+00  0.00000000E+00  0.00000000E+00  0.00000000E+00  0.00000000E+00
  0.00000000E+00  0.00000000E+00  0.00000000E+00  0.00000000E+00  0.00000000E+00
  0.00000000E+00  0.00000000E+00  0.00000000E+00  0.00000000E+00  0.00000000E+00
  0.00000000E+00  0.00000000E+00  0.00000000E+00  0.00000000E+00  0.00000000E+00
  0.00000000E+00  0.00000000E+00  0.00000000E+00  0.00000000E+00  0.00000000E+00
IOpCl                                      I                0
IROHF                                      I                0
Alpha Orbital Energies                     R   N=          53
 -1.91568516E+01 -1.02397851E+01 -1.02394638E+01 -1.06870291E+00 -6.74219427E-01
 -6.33083606E-01 -5.09751501E-01 -4.79956979E-01 -3.92641482E-01 -3.86376768E-01
 -3.12242221E-01 -2.67039474E-01  1.05571262E-01  1.06023997E-01  1.24447825E-01
  1.40966112E-01  1.49807105E-01  2.14379559E-01  2.79224895E-01  4.55524593E-01
  5.38116070E-01  5.54302315E-01  5.82610032E-01  6.26878968E-01  6.75256853E-01
  8.13767564E-01  8.22438482E-01  8.89564794E-01  8.97476210E-01  9.50767300E-01
  9.71222516E-01  9.79467583E-01  1.01338054E+00  1.34277632E+00  1.41819997E+00
  1.48503543E+00  1.52601614E+00  1.77790476E+00  1.80892560E+00  1.85693447E+00
  2.00720478E+00  2.11665839E+00  2.13819089E+00  2.24669463E+00  2.27116029E+00
  2.43061967E+00  2.47621074E+00  2.51968138E+00  2.82076066E+00  2.90789355E+00
  3.74538699E+00  4.16357872E+00  4.32250859E+00
Alpha MO coefficients                      R   N=        2809
  9.04467460E-06  3.15206469E-04  0.00000000E+00 -1.60162143E-04  2.95921839E-04
 -1.25878832E-03  0.00000000E+00  2.28400223E-04 -7.17247139E-04  2.03679068E-05
  3.90335340E-05  1.69732539E-04  0.00000000E+00  0.00000000E+00 -6.83545578E-05
  9.04467460E-06  3.15206469E-04  0.00000000E+00  1.60162143E-04  2.95921839E-04
 -1.25878832E-03  0.00000000E+00 -2.28400223E-04 -7.17247139E-04  2.03679068E-05
  3.90335340E-05  1.69732539E-04  0.00000000E+00  0.00000000E+00  6.83545578E-05
  9.92855670E-01  2.61032380E-02  0.00000000E+00  0.00000000E+00 -1.13016569E-03
  1.07251001E-02  0.00000000E+00  0.00000000E+00 -2.44266277E-04 -7.73856041E-03
 -7.78645518E-03 -7.90902601E-03  0.00000000E+00  0.00000000E+00  0.00000000E+00
  6.73476021E-05  3.64297091E-05  6.73476021E-05  3.64297091E-05  6.73476021E-05
  3.64297091E-05  6.73476021E-05  3.64297091E-05  7.01989409E-01  3.45174006E-02
  0.00000000E+00 -3.82116308E-04  7.06335186E-04 -6.61896334E-03  0.00000000E+00
 -4.06125696E-04 -1.88008210E-04 -6.49366115E-03 -6.67934277E-03 -6.45533786E-03
  0.00000000E+00  0.00000000E+00 -2.64081288E-04  7.01989409E-01  3.45174006E-02
  0.00000000E+00  3.82116308E-04  7.06335186E-04 -6.61896334E-03  0.00000000E+00
  4.06125696E-04 -1.88008210E-04 -6.49366115E-03 -6.67934277E-03 -6.45533786E-03
  0.00000000E+00  0.00000000E+00  2.64081288E-04 -7.43898373E-05  1.12727843E-04
  0.00000000E+00  0.00000000E+00  3.61324586E-05  9.99685539E-04  0.00000000E+00
  0.00000000E+00  1.09492598E-03  2.16559293E-04 -1.14042126E-04 -8.83193611E-04
  0.00000000E+00  0.00000000E+00  0.00000000E+00 -2.59938523E-04  1.64199260E-03
 -2.59938523E-04  1.64199260E-03 -2.59938523E-04  1.64199260E-03 -2.59938523E-04
  1.64199260E-03  7.02177220E-01  3.48944610E-02  0.00000000E+00 -7.99866039E-04
  4.62667334E-04 -1.38094959E-02  0.00000000E+00  2.63062215E-03 -2.90648877E-04
 -6.36520669E-03 -5.83583611E-03 -6.38739015E-03  0.00000000E+00  0.00000000E+00
 -1.90054803E-04 -7.02177220E-01 -3.48944610E-02  0.00000000E+00 -7.99866039E-04
 -4.62667334E-04  1.38094959E-02  0.00000000E+00  2.63062215E-03  2.90648877E-04
  6.36520669E-03  5.83583611E-03  6.38739015E-03  0.00000000E+00  0.00000000E+00
 -1.90054803E-04  0.00000000E+00  0.00000000E+00  0.00000000E+00 -2.62059246E-04
  0.00000000E+00  0.00000000E+00  0.00000000E+00  1.19204454E-03  0.00000000E+00
  0.00000000E+00  0.00000000E+00  0.00000000E+00  0.00000000E+00  0.00000000E+00
  4.06193369E-04 -6.03857028E-06  1.63784564E-03 -6.03857028E-06  1.63784564E-03
  6.03857028E-06 -1.63784564E-03  6.03857028E-06 -1.63784564E-03 -8.54873948E-02
  1.61497990E-01  0.00000000E+00 -9.20246057E-02  8.56144741E-02  6.38907375E-02
  0.00000000E+00  1.19159352E-03 -4.26639662E-03 -1.01741613E-02  4.70402380E-03
  6.48274311E-03  0.00000000E+00  0.00000000E+00 -1.74385905E-02 -8.54873948E-02
  1.61497990E-01  0.00000000E+00  9.20246057E-02  8.56144741E-02  6.38907375E-02
  0.00000000E+00 -1.19159352E-03 -4.26639662E-03 -1.01741613E-02  4.70402380E-03
  6.48274311E-03  0.00000000E+00  0.00000000E+00  1.74385905E-02 -1.78874974E-01
  3.99329235E-01  0.00000000E+00  0.00000000E+00 -1.50525188E-01  3.63512737E-01
  0.00000000E+00  0.00000000E+00 -6.69596149E-02 -9.33721203E-03 -2.07214326E-03
  1.87816113E-02  0.00000000E+00  0.00000000E+00  0.00000000E+00  2.29757777E-02
 -2.64862946E-03  2.29757777E-02 -2.64862946E-03  2.29757777E-02 -2.64862946E-03
  2.29757777E-02 -2.64862946E-03  1.21724845E-01 -2.51709385E-01  0.00000000E+00
  3.08125898E-02  1.08794011E-01 -2.22337292E-01  0.00000000E+00  4.10694456E-03
  3.18973455E-02 -6.72694170E-03 -9.76613413E-03  2.20044429E-02  0.00000000E+00
  0.00000000E+00 -4.71801676E-03  1.21724845E-01 -2.51709385E-01  0.00000000E+00
 -3.08125898E-02  1.08794011E-01 -2.22337292E-01  0.00000000E+00 -4.10694456E-03
  3.18973455E-02 -6.72694170E-03 -9.76613413E-03  2.20044429E-02  0.00000000E+00
  0.00000000E+00  4.71801676E-03 -1.23321545E-01  2.75976611E-01  0.00000000E+00
  0.00000000E+00  9.14419273E-02  3.85948706E-01  0.00000000E+00  0.00000000E+00
  3.15437660E-02 -4.25395389E-03 -1.50291377E-03 -1.41540842E-02  0.00000000E+00
  0.00000000E+00  0.00000000E+00 -9.46644089E-02 -2.96711992E-02 -9.46644089E-02
 -2.96711992E-02 -9.46644089E-02 -2.96711992E-02 -9.46644089E-02 -2.96711992E-02
 -1.28756146E-01  2.66168714E-01  0.00000000E+00  1.29139449E-01  2.32210078E-02
  2.52130684E-01  0.00000000E+00  4.26225084E-02 -1.97003373E-03  9.32254658E-03
 -1.34483494E-02 -2.78510093E-03  0.00000000E+00  0.00000000E+00 -6.69517242E-03
  1.28756146E-01 -2.66168714E-01  0.00000000E+00  1.29139449E-01 -2.32210078E-02
 -2.52130684E-01  0.00000000E+00  4.26225084E-02  1.97003373E-03 -9.32254658E-03
  1.34483494E-02  2.78510093E-03  0.00000000E+00  0.00000000E+00 -6.69517242E-03
  0.00000000E+00  0.00000000E+00  0.00000000E+00  1.86741858E-01  0.00000000E+00
  0.00000000E+00  0.00000000E+00  9.14238591E-02  0.00000000E+00  0.00000000E+00
  0.00000000E+00  0.00000000E+00  0.00000000E+00  0.00000000E+00 -2.13436555E-02
  1.26022243E-01  4.73623765E-02  1.26022243E-01  4.73623765E-02 -1.26022243E-01
 -4.73623765E-02 -1.26022243E-01 -4.73623765E-02  0.00000000E+00  0.00000000E+00
  3.14727921E-01  0.00000000E+00  0.00000000E+00  0.00000000E+00  1.24604779E-01
  0.00000000E+00  0.00000000E+00  0.00000000E+00  0.00000000E+00  0.00000000E+00
 -1.27780903E-03  2.28131837E-03  0.00000000E+00  0.00000000E+00  0.00000000E+00
  3.14727921E-01  0.00000000E+00  0.00000000E+00  0.00000000E+00  1.24604779E-01
  0.00000000E+00  0.00000000E+00  0.00000000E+00  0.00000000E+00  0.00000000E+00
  1.27780903E-03  2.28131837E-03  0.00000000E+00  0.00000000E+00  0.00000000E+00
  2.30396077E-01  0.00000000E+00  0.00000000E+00  0.00000000E+00  1.26664126E-01
  0.00000000E+00  0.00000000E+00  0.00000000E+00  0.00000000E+00  0.00000000E+00
  0.00000000E+00 -2.15395213E-02  0.00000000E+00  1.32253352E-01  7.93344515E-02
 -1.32253352E-01 -7.93344515E-02  1.32253352E-01  7.93344515E-02 -1.32253352E-01
 -7.93344515E-02 -4.72630726E-03 -1.06051052E-02  0.00000000E+00  3.20087798E-01
 -8.76251053E-02  3.95362222E-02  0.00000000E+00  9.82844031E-02 -1.25112689E-02
  1.73326404E-02 -1.27915631E-02 -6.03596585E-04  0.00000000E+00  0.00000000E+00
  1.02507561E-02 -4.72630726E-03 -1.06051052E-02  0.00000000E+00 -3.20087798E-01
 -8.76251053E-02  3.95362222E-02  0.00000000E+00 -9.82844031E-02 -1.25112689E-02
  1.73326404E-02 -1.27915631E-02 -6.03596585E-04  0.00000000E+00  0.00000000E+00
 -1.02507561E-02 -6.83636269E-02  1.32615177E-01  0.00000000E+00  0.00000000E+00
  3.31661667E-01  2.84114639E-01  0.00000000E+00  0.00000000E+00  1.68554937E-01
 -3.35280658E-03  7.31538660E-03 -3.23336792E-02  0.00000000E+00  0.00000000E+00
  0.00000000E+00  1.00825253E-01  7.89322325E-02  1.00825253E-01  7.89322325E-02
  1.00825253E-01  7.89322325E-02  1.00825253E-01  7.89322325E-02  7.42403274E-03
 -2.26307620E-02  0.00000000E+00 -1.00647649E-01  2.50554970E-01  4.63895315E-02
  0.00000000E+00 -6.31394698E-02  1.37001017E-01 -1.45833119E-02 -8.28109409E-03
  2.58540593E-02  0.00000000E+00  0.00000000E+00 -4.04737340E-04 -7.42403274E-03
  2.26307620E-02  0.00000000E+00 -1.00647649E-01 -2.50554970E-01 -4.63895315E-02
  0.00000000E+00 -6.31394698E-02 -1.37001017E-01  1.45833119E-02  8.28109409E-03
 -2.58540593E-02  0.00000000E+00  0.00000000E+00 -4.04737340E-04  0.00000000E+00
  0.00000000E+00  0.00000000E+00  5.05180814E-01  0.00000000E+00  0.00000000E+00
  0.00000000E+00  2.84651402E-01  0.00000000E+00  0.00000000E+00  0.00000000E+00
  0.00000000E+00  0.00000000E+00  0.00000000E+00 -2.59784434E-02 -8.15968304E-02
 -6.59979538E-02 -8.15968304E-02 -6.59979538E-02  8.15968304E-02  6.59979538E-02
  8.15968304E-02  6.59979538E-02  0.00000000E+00  0.00000000E+00  3.28988429E-01
  0.00000000E+00  0.00000000E+00  0.00000000E+00  1.33285493E-01  0.00000000E+00
  0.00000000E+00  0.00000000E+00  0.00000000E+00  0.00000000E+00  2.48769682E-02
 -5.22985586E-03  0.00000000E+00  0.00000000E+00  0.00000000E+00 -3.28988429E-01
  0.00000000E+00  0.00000000E+00  0.00000000E+00 -1.33285493E-01  0.00000000E+00
  0.00000000E+00  0.00000000E+00  0.00000000E+00  0.00000000E+00  2.48769682E-02
  5.22985586E-03  0.00000000E+00  0.00000000E+00  0.00000000E+00  0.00000000E+00
  0.00000000E+00  0.00000000E+00  0.00000000E+00  0.00000000E+00  0.00000000E+00
  0.00000000E+00  0.00000000E+00  0.00000000E+00  0.00000000E+00  8.51609048E-03
  0.00000000E+00  0.00000000E+00  1.89613563E-01  1.69161280E-01 -1.89613563E-01
 -1.69161280E-01 -1.89613563E-01 -1.69161280E-01  1.89613563E-01  1.69161280E-01
 -6.58669072E-03  2.84735527E-03  0.00000000E+00 -2.48501010E-01 -2.84929390E-01
  4.31027853E-02  0.00000000E+00 -1.39094435E-01 -1.46138313E-01 -4.45685583E-03
  6.73437984E-03 -6.64581209E-03  0.00000000E+00  0.00000000E+00  2.08448153E-02
 -6.58669072E-03  2.84735527E-03  0.00000000E+00  2.48501010E-01 -2.84929390E-01
  4.31027853E-02  0.00000000E+00  1.39094435E-01 -1.46138313E-01 -4.45685583E-03
  6.73437984E-03 -6.64581209E-03  0.00000000E+00  0.00000000E+00 -2.08448153E-02
 -4.63651426E-02  8.10993549E-02  0.00000000E+00  0.00000000E+00  3.70175860E-01
  2.27568759E-01  0.00000000E+00  0.00000000E+00  2.47735248E-01 -4.52197772E-03
 -1.32264002E-02 -2.25177744E-02  0.00000000E+00  0.00000000E+00  0.00000000E+00
 -4.57168027E-02 -4.19647578E-02 -4.57168027E-02 -4.19647578E-02 -4.57168027E-02
 -4.19647578E-02 -4.57168027E-02 -4.19647578E-02  0.00000000E+00  0.00000000E+00
 -1.09519893E-01  0.00000000E+00  0.00000000E+00  0.00000000E+00 -7.72461490E-03
  0.00000000E+00  0.00000000E+00  0.00000000E+00  0.00000000E+00  0.00000000E+00
 -1.75112300E-02  2.66567859E-02  0.00000000E+00  0.00000000E+00  0.00000000E+00
 -1.09519893E-01  0.00000000E+00  0.00000000E+00  0.00000000E+00 -7.72461490E-03
  0.00000000E+00  0.00000000E+00  0.00000000E+00  0.00000000E+00  0.00000000E+00
  1.75112300E-02  2.66567859E-02  0.00000000E+00  0.00000000E+00  0.00000000E+00
  6.10017271E-01  0.00000000E+00  0.00000000E+00  0.00000000E+00  4.57879837E-01
  0.00000000E+00  0.00000000E+00  0.00000000E+00  0.00000000E+00  0.00000000E+00
  0.00000000E+00 -2.77040403E-02  0.00000000E+00 -1.05244879E-01 -1.43421198E-01
  1.05244879E-01  1.43421198E-01 -1.05244879E-01 -1.43421198E-01  1.05244879E-01
  1.43421198E-01 -9.21420046E-02  1.58512276E-01  0.00000000E+00  1.38239001E-01
 -2.37495598E-02  1.39514211E+00  0.00000000E+00  4.94154496E-01 -6.24545151E-02
 -1.22776310E-02  5.28154566E-03 -7.43415287E-03  0.00000000E+00  0.00000000E+00
  8.06791701E-03 -9.21420046E-02  1.58512276E-01  0.00000000E+00 -1.38239001E-01
 -2.37495598E-02  1.39514211E+00  0.00000000E+00 -4.94154496E-01 -6.24545151E-02
 -1.22776310E-02  5.28154566E-03 -7.43415287E-03  0.00000000E+00  0.00000000E+00
 -8.06791701E-03  1.87463491E-02 -1.27323985E-02  0.00000000E+00  0.00000000E+00
  8.25652172E-02 -1.99847389E-01  0.00000000E+00  0.00000000E+00  1.07428107E-01
  4.55571752E-03  2.36658622E-02  1.31548289E-02  0.00000000E+00  0.00000000E+00
  0.00000000E+00 -4.57427301E-02 -9.56427977E-01 -4.57427301E-02 -9.56427977E-01
 -4.57427301E-02 -9.56427977E-01 -4.57427301E-02 -9.56427977E-01 -4.30453451E-02
  4.02409478E-02  0.00000000E+00 -1.52956094E-01 -3.49592524E-01  7.86881472E-01
  0.00000000E+00 -4.32136011E-01 -6.70950385E-01 -4.78676964E-03 -2.21236853E-02
  1.13529560E-02  0.00000000E+00  0.00000000E+00 -1.88187827E-02  4.30453451E-02
 -4.02409478E-02  0.00000000E+00 -1.52956094E-01  3.49592524E-01 -7.86881472E-01
  0.00000000E+00 -4.32136011E-01  6.70950385E-01  4.78676964E-03  2.21236853E-02
 -1.13529560E-02  0.00000000E+00  0.00000000E+00 -1.88187827E-02  0.00000000E+00
  0.00000000E+00  0.00000000E+00  3.33285585E-01  0.00000000E+00  0.00000000E+00
  0.00000000E+00  4.10528154E-01  0.00000000E+00  0.00000000E+00  0.00000000E+00
  0.00000000E+00  0.00000000E+00  0.00000000E+00 -4.99893362E-03 -1.82820611E-02
 -2.37589842E-01 -1.82820611E-02 -2.37589842E-01  1.82820611E-02  2.37589842E-01
  1.82820611E-02  2.37589842E-01  4.59443561E-02 -6.21743981E-02  0.00000000E+00
  1.49807625E-01 -1.93894960E-01 -3.47305625E-01  0.00000000E+00  3.71424285E-01
 -7.69058827E-01 -1.32199344E-02 -1.10600175E-02  1.94584670E-02  0.00000000E+00
  0.00000000E+00 -1.39138379E-02  4.59443561E-02 -6.21743981E-02  0.00000000E+00
 -1.49807625E-01 -1.93894960E-01 -3.47305625E-01  0.00000000E+00 -3.71424285E-01
 -7.69058827E-01 -1.32199344E-02 -1.10600175E-02  1.94584670E-02  0.00000000E+00
  0.00000000E+00  1.39138379E-02 -1.07643445E-01  1.31895707E-01  0.00000000E+00
  0.00000000E+00 -3.61748187E-01  1.46603379E+00  0.00000000E+00  0.00000000E+00
 -7.59157243E-01 -5.73913087E-02 -4.48910294E-02 -1.16169609E-02  0.00000000E+00
  0.00000000E+00  0.00000000E+00 -1.00741799E-02 -1.21915507E-01 -1.00741799E-02
 -1.21915507E-01 -1.00741799E-02 -1.21915507E-01 -1.00741799E-02 -1.21915507E-01
  0.00000000E+00  0.00000000E+00 -3.28584903E-01  0.00000000E+00  0.00000000E+00
  0.00000000E+00 -7.71330641E-01  0.00000000E+00  0.00000000E+00  0.00000000E+00
  0.00000000E+00  0.00000000E+00  2.57873015E-02  6.39471808E-04  0.00000000E+00
  0.00000000E+00  0.00000000E+00 -3.28584903E-01  0.00000000E+00  0.00000000E+00
  0.00000000E+00 -7.71330641E-01  0.00000000E+00  0.00000000E+00  0.00000000E+00
  0.00000000E+00  0.00000000E+00 -2.57873015E-02  6.39471808E-04  0.00000000E+00
  0.00000000E+00  0.00000000E+00  1.39669982E-01  0.00000000E+00  0.00000000E+00
  0.00000000E+00  2.73595486E-01  0.00000000E+00  0.00000000E+00  0.00000000E+00
  0.00000000E+00  0.00000000E+00  0.00000000E+00  1.09058364E-02  0.00000000E+00
  5.58683832E-02  1.02016885E+00 -5.58683832E-02 -1.02016885E+00  5.58683832E-02
  1.02016885E+00 -5.58683832E-02 -1.02016885E+00 -1.11810516E-01  1.62711618E-01
  0.00000000E+00  1.46242328E-01  6.08780802E-02  1.74128620E+00  0.00000000E+00
  1.40515914E-01  6.14898097E-02 -1.63964505E-03 -1.32766794E-03 -1.40477842E-02
  0.00000000E+00  0.00000000E+00 -3.13552234E-04  1.11810516E-01 -1.62711618E-01
  0.00000000E+00  1.46242328E-01 -6.08780802E-02 -1.74128620E+00  0.00000000E+00
  1.40515914E-01 -6.14898097E-02  1.63964505E-03  1.32766794E-03  1.40477842E-02
  0.00000000E+00  0.00000000E+00 -3.13552234E-04  0.00000000E+00  0.00000000E+00
  0.00000000E+00 -2.07447981E-01  0.00000000E+00  0.00000000E+00  0.00000000E+00
 -3.63933472E-01  0.00000000E+00  0.00000000E+00  0.00000000E+00  0.00000000E+00
  0.00000000E+00  0.00000000E+00 -3.80770939E-03 -3.94485554E-02 -9.53600725E-01
 -3.94485554E-02 -9.53600725E-01  3.94485554E-02  9.53600725E-01  3.94485554E-02
  9.53600725E-01  0.00000000E+00  0.00000000E+00  3.45339998E-01  0.00000000E+00
  0.00000000E+00  0.00000000E+00  1.39464169E+00  0.00000000E+00  0.00000000E+00
  0.00000000E+00  0.00000000E+00  0.00000000E+00  9.72356452E-03  3.46047414E-03
  0.00000000E+00  0.00000000E+00  0.00000000E+00 -3.45339998E-01  0.00000000E+00
  0.00000000E+00  0.00000000E+00 -1.39464169E+00  0.00000000E+00  0.00000000E+00
  0.00000000E+00  0.00000000E+00  0.00000000E+00  9.72356452E-03 -3.46047414E-03
  0.00000000E+00  0.00000000E+00  0.00000000E+00  0.00000000E+00  0.00000000E+00
  0.00000000E+00  0.00000000E+00  0.00000000E+00  0.00000000E+00  0.00000000E+00