 Title Card Required
GAUSSIAN              9 MOL ORBITALS    120 PRIMITIVES        4 NUCLEI
  P    1    (CENTRE  1)   0.00000000  0.00000000  0.24101116  CHARGE = 15.0
  H    2    (CENTRE  2)   0.00000000  2.24172750 -1.20505581  CHARGE =  1.0
  H    3    (CENTRE  3)  -1.94139297 -1.12086375 -1.20505581  CHARGE =  1.0
  H    4    (CENTRE  4)   1.94139297 -1.12086375 -1.20505581  CHARGE =  1.0
CENTRE ASSIGNMENTS    1  1  1  1  1  1  1  1  1  1  1  1  1  1  1  1  1  1  1  1
CENTRE ASSIGNMENTS    1  1  1  1  1  1  1  1  1  1  1  1  1  1  1  1  1  1  1  1
CENTRE ASSIGNMENTS    1  1  1  1  1  1  1  1  1  1  1  1  1  1  1  1  1  1  1  1
CENTRE ASSIGNMENTS    1  1  1  1  1  1  1  1  1  2  2  2  2  2  2  2  2  2  2  2
CENTRE ASSIGNMENTS    2  2  2  2  2  2  3  3  3  3  3  3  3  3  3  3  3  3  3  3
CENTRE ASSIGNMENTS    3  3  3  4  4  4  4  4  4  4  4  4  4  4  4  4  4  4  4  4
TYPE ASSIGNMENTS      1  1  1  1  1  1  1  1  1  1  1  1  1  1  2  2  2  2  2  3
TYPE ASSIGNMENTS      3  3  3  3  4  4  4  4  4  2  3  4  2  3  4  2  3  4  2  3
TYPE ASSIGNMENTS      4  5  6  7  8  9 10  5  6  7  8  9 10  5  6  7  8  9 10 11
TYPE ASSIGNMENTS     12 13 17 14 15 18 19 16 20  1  1  1  1  1  2  3  4  2  3  4
TYPE ASSIGNMENTS      5  6  7  8  9 10  1  1  1  1  1  2  3  4  2  3  4  5  6  7
TYPE ASSIGNMENTS      8  9 10  1  1  1  1  1  2  3  4  2  3  4  5  6  7  8  9 10
EXPONENTS  0.5242700D+05 0.7863266D+04 0.1789523D+04 0.5062730D+03 0.1646070D+03
EXPONENTS  0.5839192D+02 0.2164366D+02 0.9901384D+02 0.3055044D+02 0.5453709D+01
EXPONENTS  0.2650336D+01 0.1272669D+01 0.3164501D+00 0.1141747D+00 0.4722722D+03
EXPONENTS  0.1115888D+03 0.3544594D+02 0.1299078D+02 0.5048622D+01 0.4722722D+03
EXPONENTS  0.1115888D+03 0.3544594D+02 0.1299078D+02 0.5048622D+01 0.4722722D+03
EXPONENTS  0.1115888D+03 0.3544594D+02 0.1299078D+02 0.5048622D+01 0.1993405D+01
EXPONENTS  0.1993405D+01 0.1993405D+01 0.6652728D+00 0.6652728D+00 0.6652728D+00
EXPONENTS  0.2551683D+00 0.2551683D+00 0.2551683D+00 0.9035776D-01 0.9035776D-01
EXPONENTS  0.9035776D-01 0.3120000D+01 0.3120000D+01 0.3120000D+01 0.3120000D+01
EXPONENTS  0.3120000D+01 0.3120000D+01 0.6480000D+00 0.6480000D+00 0.6480000D+00
EXPONENTS  0.6480000D+00 0.6480000D+00 0.6480000D+00 0.2180000D+00 0.2180000D+00
EXPONENTS  0.2180000D+00 0.2180000D+00 0.2180000D+00 0.2180000D+00 0.4520000D+00
EXPONENTS  0.4520000D+00 0.4520000D+00 0.4520000D+00 0.4520000D+00 0.4520000D+00
EXPONENTS  0.4520000D+00 0.4520000D+00 0.4520000D+00 0.4520000D+00 0.3406134D+02
EXPONENTS  0.5123575D+01 0.1164663D+01 0.3272304D+00 0.1030724D+00 0.1407000D+01
EXPONENTS  0.1407000D+01 0.1407000D+01 0.3880000D+00 0.3880000D+00 0.3880000D+00
EXPONENTS  0.1057000D+01 0.1057000D+01 0.1057000D+01 0.1057000D+01 0.1057000D+01
EXPONENTS  0.1057000D+01 0.3406134D+02 0.5123575D+01 0.1164663D+01 0.3272304D+00
EXPONENTS  0.1030724D+00 0.1407000D+01 0.1407000D+01 0.1407000D+01 0.3880000D+00
EXPONENTS  0.3880000D+00 0.3880000D+00 0.1057000D+01 0.1057000D+01 0.1057000D+01
EXPONENTS  0.1057000D+01 0.1057000D+01 0.1057000D+01 0.3406134D+02 0.5123575D+01
EXPONENTS  0.1164663D+01 0.3272304D+00 0.1030724D+00 0.1407000D+01 0.1407000D+01
EXPONENTS  0.1407000D+01 0.3880000D+00 0.3880000D+00 0.3880000D+00 0.1057000D+01
EXPONENTS  0.1057000D+01 0.1057000D+01 0.1057000D+01 0.1057000D+01 0.1057000D+01
MO    1     MO 0.0        OCC NO =    2.0000000  ORB. ENERGY =  -78.023878
  0.13190255D+01  0.24575585D+01  0.41611497D+01  0.63051366D+01  0.78721128D+01
  0.67496566D+01  0.24461657D+01 -0.60903059D-01 -0.11014352D+00  0.93148523D-01
 -0.11758714D-01 -0.33729952D-02  0.18189106D-02  0.48863958D-03  0.00000000D+00
  0.00000000D+00  0.00000000D+00  0.00000000D+00  0.00000000D+00  0.36221132D-14
  0.46996581D-14  0.50684021D-14  0.40636929D-14  0.20756618D-14 -0.15931026D-02
 -0.20670358D-02 -0.22292193D-02 -0.17873212D-02 -0.91293176D-03  0.00000000D+00
 -0.17409479D-14  0.77276050D-03  0.00000000D+00  0.40436062D-15  0.13770362D-03
  0.00000000D+00  0.18608133D-15 -0.10664319D-02  0.00000000D+00  0.47194146D-16
 -0.29893656D-04 -0.16251212D-03 -0.16251212D-03  0.32502423D-03  0.00000000D+00
  0.00000000D+00  0.52753810D-14  0.54417981D-04  0.54417981D-04 -0.10883596D-03
  0.00000000D+00  0.00000000D+00 -0.39143774D-15  0.21484469D-05  0.21484469D-05
 -0.42968938D-05  0.00000000D+00  0.00000000D+00 -0.11262058D-15  0.00000000D+00
  0.15978909D-03  0.18084870D-03  0.00000000D+00 -0.47936727D-03 -0.27127305D-03
  0.00000000D+00  0.15795585D-15 -0.27127305D-03  0.00000000D+00  0.93122070D-04
  0.16806638D-03  0.24812215D-03 -0.96118664D-03 -0.66385231D-04  0.00000000D+00
  0.38137104D-04 -0.10359187D-03  0.00000000D+00  0.75186815D-03 -0.41874952D-03
  0.42801805D-03 -0.46476277D-03  0.36744728D-04  0.00000000D+00  0.00000000D+00
  0.11673310D-02  0.93122070D-04  0.16806638D-03  0.24812215D-03 -0.96118664D-03
 -0.66385231D-04 -0.33027701D-04 -0.19068552D-04 -0.10359187D-03 -0.65113692D-03
 -0.37593408D-03 -0.41874952D-03 -0.24156757D-03  0.20482284D-03  0.36744728D-04
 -0.77317087D-03 -0.10109383D-02 -0.58366551D-03  0.93122070D-04  0.16806638D-03
  0.24812215D-03 -0.96118664D-03 -0.66385231D-04  0.33027701D-04 -0.19068552D-04
 -0.10359187D-03  0.65113692D-03 -0.37593408D-03 -0.41874952D-03 -0.24156757D-03
  0.20482284D-03  0.36744728D-04  0.77317087D-03  0.10109383D-02 -0.58366551D-03
MO    2     MO 0.0        OCC NO =    2.0000000  ORB. ENERGY =   -6.843019
 -0.37420222D+00 -0.69719942D+00 -0.11805014D+01 -0.17887418D+01 -0.22332866D+01
 -0.19148504D+01 -0.69396733D+00 -0.51907538D+00 -0.93875072D+00  0.79390273D+00
  0.79460820D+00  0.22793391D+00  0.81407148D-02  0.45735553D-03  0.00000000D+00
  0.00000000D+00  0.00000000D+00  0.00000000D+00  0.00000000D+00 -0.32110482D-14
 -0.41663050D-14 -0.44932011D-14 -0.36025140D-14 -0.18400998D-14 -0.43478686D-01
 -0.56413189D-01 -0.60839473D-01 -0.48779267D-01 -0.24915578D-01  0.00000000D+00
  0.11069389D-14 -0.87168789D-02  0.00000000D+00 -0.56780179D-15  0.71578687D-03
  0.00000000D+00  0.21798671D-14 -0.26276535D-02  0.00000000D+00  0.22642460D-16
  0.10758325D-04  0.19075385D-02  0.19075385D-02 -0.38150770D-02  0.00000000D+00
  0.00000000D+00 -0.17647542D-14  0.16617746D-03  0.16617746D-03 -0.33235492D-03
  0.00000000D+00  0.00000000D+00 -0.17341089D-14 -0.22740908D-05 -0.22740908D-05
  0.45481816D-05  0.00000000D+00  0.00000000D+00 -0.64971894D-15  0.00000000D+00
  0.32629926D-03  0.38313914D-03  0.00000000D+00 -0.97889778D-03 -0.57470871D-03
  0.00000000D+00  0.19009887D-15 -0.57470871D-03  0.00000000D+00  0.23412299D-03
  0.42254433D-03  0.62381665D-03 -0.21122130D-02 -0.38315293D-04  0.00000000D+00
 -0.17706446D-03 -0.99061962D-05  0.00000000D+00  0.16896522D-02 -0.91852797D-03
  0.64024870D-03 -0.72724506D-03  0.86996357D-04  0.00000000D+00  0.00000000D+00
  0.17399072D-02  0.23412299D-03  0.42254433D-03  0.62381665D-03 -0.21122130D-02
 -0.38315293D-04  0.15334232D-03  0.88532231D-04 -0.99061962D-05 -0.14632817D-02
 -0.84482611D-03 -0.91852797D-03 -0.38537162D-03  0.29837526D-03  0.86996357D-04
 -0.11842843D-02 -0.15068039D-02 -0.86995362D-03  0.23412299D-03  0.42254433D-03
  0.62381665D-03 -0.21122130D-02 -0.38315293D-04 -0.15334232D-03  0.88532231D-04
 -0.99061962D-05  0.14632817D-02 -0.84482611D-03 -0.91852797D-03 -0.38537162D-03
  0.29837526D-03  0.86996357D-04  0.11842843D-02  0.15068039D-02 -0.86995362D-03
MO    3     MO 0.0        OCC NO =    2.0000000  ORB. ENERGY =   -4.957803
 -0.10772481D-17 -0.20070879D-17 -0.33984107D-17 -0.51494047D-17 -0.64291540D-17
 -0.55124442D-17 -0.19977834D-17  0.16044288D-14  0.29016184D-14 -0.24539026D-14
  0.10577619D-14  0.30341974D-15 -0.86871360D-15 -0.93263127D-15  0.00000000D+00
  0.00000000D+00  0.00000000D+00  0.00000000D+00  0.00000000D+00  0.82243053D+01
  0.10670959D+02  0.11508223D+02  0.92269482D+01  0.47129604D+01 -0.95089065D-12
 -0.12337717D-11 -0.13305758D-11 -0.10668158D-11 -0.54491046D-12  0.00000000D+00
  0.11535342D+01 -0.12785215D-12  0.00000000D+00  0.61086821D-01 -0.11342419D-13
  0.00000000D+00 -0.40783617D-02  0.37731106D-14  0.00000000D+00  0.25954822D-03
 -0.10401198D-15  0.30593731D-02 -0.30593731D-02  0.21886648D-14  0.00000000D+00
  0.00000000D+00 -0.14304212D-01 -0.28384553D-03  0.28384553D-03  0.40570407D-15
  0.00000000D+00  0.00000000D+00 -0.15455117D-02  0.98993122D-04 -0.98993122D-04
 -0.44422062D-15  0.00000000D+00  0.00000000D+00  0.49342255D-03  0.00000000D+00
  0.62369858D-04  0.69184253D-16  0.00000000D+00  0.62369858D-04 -0.83639941D-04
  0.00000000D+00 -0.24947943D-03  0.83639941D-04  0.00000000D+00  0.13225376D-03
  0.23869111D-03  0.35238785D-03  0.10241553D-02 -0.16705028D-03  0.00000000D+00
  0.62663782D-03 -0.51418433D-03  0.00000000D+00 -0.60696504D-04  0.10944870D-03
  0.96679380D-03 -0.82532619D-03 -0.14146761D-03  0.00000000D+00  0.00000000D+00
  0.27351134D-02 -0.66126879D-04 -0.11934556D-03 -0.17619393D-03 -0.51207764D-03
  0.83525139D-04  0.41912846D-03 -0.99313971D-04  0.25709216D-03 -0.21024887D-03
  0.30346522D-03 -0.54724350D-04  0.21529327D-03 -0.28602707D-03  0.70733804D-04
  0.74524353D-03  0.14127126D-02  0.28822343D-03 -0.66126879D-04 -0.11934556D-03
 -0.17619393D-03 -0.51207764D-03  0.83525139D-04 -0.41912846D-03 -0.99313971D-04
  0.25709216D-03  0.21024887D-03  0.30346522D-03 -0.54724350D-04  0.21529327D-03
 -0.28602707D-03  0.70733804D-04 -0.74524353D-03 -0.14127126D-02  0.28822343D-03
MO    4     MO 0.0        OCC NO =    2.0000000  ORB. ENERGY =   -4.957803
  0.00000000D+00  0.00000000D+00  0.00000000D+00  0.00000000D+00  0.00000000D+00
  0.00000000D+00  0.00000000D+00  0.00000000D+00  0.00000000D+00  0.00000000D+00
  0.00000000D+00  0.00000000D+00  0.00000000D+00  0.00000000D+00  0.82243053D+01
  0.10670959D+02  0.11508223D+02  0.92269482D+01  0.47129604D+01  0.00000000D+00
  0.00000000D+00  0.00000000D+00  0.00000000D+00  0.00000000D+00  0.00000000D+00
  0.00000000D+00  0.00000000D+00  0.00000000D+00  0.00000000D+00  0.11535342D+01
  0.00000000D+00  0.00000000D+00  0.61086821D-01  0.00000000D+00  0.00000000D+00
 -0.40783617D-02  0.00000000D+00  0.00000000D+00  0.25954822D-03  0.00000000D+00
  0.00000000D+00  0.00000000D+00  0.00000000D+00  0.00000000D+00  0.61187461D-02
 -0.14304212D-01  0.00000000D+00  0.00000000D+00  0.00000000D+00  0.00000000D+00
 -0.56769105D-03 -0.15455117D-02  0.00000000D+00  0.00000000D+00  0.00000000D+00
  0.00000000D+00  0.19798624D-03  0.49342255D-03  0.00000000D+00  0.62369858D-04
  0.00000000D+00  0.00000000D+00  0.62369858D-04  0.00000000D+00  0.00000000D+00
 -0.24947943D-03  0.00000000D+00  0.00000000D+00 -0.16727988D-03  0.00000000D+00
  0.00000000D+00  0.00000000D+00  0.00000000D+00  0.00000000D+00 -0.34129790D-03
  0.00000000D+00  0.00000000D+00  0.42485247D-03  0.00000000D+00  0.00000000D+00
  0.00000000D+00  0.00000000D+00  0.00000000D+00  0.71053783D-04 -0.52740657D-03
  0.00000000D+00 -0.11453511D-03 -0.20671257D-03 -0.30517683D-03 -0.88694450D-03
  0.14466978D-03  0.38465389D-03  0.41912846D-03  0.44529669D-03  0.60690739D-04
 -0.21024887D-03 -0.94785354D-04  0.31136449D-03 -0.43387904D-03  0.12251454D-03
  0.13618534D-02  0.19194834D-02  0.14127126D-02  0.11453511D-03  0.20671257D-03
  0.30517683D-03  0.88694450D-03 -0.14466978D-03  0.38465389D-03 -0.41912846D-03
 -0.44529669D-03  0.60690739D-04  0.21024887D-03  0.94785354D-04 -0.31136449D-03
  0.43387904D-03 -0.12251454D-03  0.13618534D-02  0.19194834D-02 -0.14127126D-02
MO    5     MO 0.0        OCC NO =    2.0000000  ORB. ENERGY =   -4.955710
 -0.23690775D-02 -0.44139755D-02 -0.74737643D-02 -0.11324540D-01 -0.14138957D-01
 -0.12122934D-01 -0.43935131D-02 -0.34298920D-02 -0.62029788D-02  0.52458674D-02
  0.57423500D-02  0.16471971D-02 -0.85685888D-03  0.10785886D-03  0.00000000D+00
  0.00000000D+00  0.00000000D+00  0.00000000D+00  0.00000000D+00  0.94575636D-12
  0.12271100D-11  0.13233914D-11  0.10610556D-11  0.54196824D-12  0.82326887D+01
  0.10681837D+02  0.11519954D+02  0.92363536D+01  0.47177645D+01  0.00000000D+00
  0.13259542D-12  0.11523097D+01  0.00000000D+00  0.79241338D-14  0.59984281D-01
  0.00000000D+00 -0.12762692D-14 -0.35396414D-02  0.00000000D+00 -0.11655443D-16
  0.24648926D-03  0.73801034D-02  0.73801034D-02 -0.14760207D-01  0.00000000D+00
  0.00000000D+00 -0.47099165D-14  0.20489591D-03  0.20489591D-03 -0.40979182D-03
  0.00000000D+00  0.00000000D+00 -0.12176309D-15 -0.59621618D-04 -0.59621618D-04
  0.11924324D-03  0.00000000D+00  0.00000000D+00  0.53050936D-15  0.00000000D+00
 -0.72057132D-04 -0.10204635D-03  0.00000000D+00  0.21617140D-03  0.15306952D-03
  0.00000000D+00 -0.31137231D-15  0.15306952D-03  0.00000000D+00 -0.93216923D-04
 -0.16823757D-03 -0.24837488D-03 -0.12919066D-03  0.44131125D-04  0.00000000D+00
 -0.67316753D-03  0.13078597D-03  0.00000000D+00  0.62512131D-04  0.38663386D-03
 -0.54740575D-03  0.75485881D-03 -0.20745306D-03  0.00000000D+00  0.00000000D+00
 -0.15886365D-02 -0.93216923D-04 -0.16823757D-03 -0.24837488D-03 -0.12919066D-03
  0.44131125D-04  0.58298018D-03  0.33658377D-03  0.13078597D-03 -0.54137094D-04
 -0.31256066D-04  0.38663386D-03  0.42929267D-03 -0.22183961D-03 -0.20745306D-03
  0.11277942D-02  0.13757996D-02  0.79431824D-03 -0.93216923D-04 -0.16823757D-03
 -0.24837488D-03 -0.12919066D-03  0.44131125D-04 -0.58298018D-03  0.33658377D-03
  0.13078597D-03  0.54137094D-04 -0.31256066D-04  0.38663386D-03  0.42929267D-03
 -0.22183961D-03 -0.20745306D-03 -0.11277942D-02 -0.13757996D-02  0.79431824D-03
MO    6     MO 0.0        OCC NO =    2.0000000  ORB. ENERGY =   -0.725995
  0.89229029D-01  0.16624815D+00  0.28149216D+00  0.42652792D+00  0.53253024D+00
  0.45659867D+00  0.16547745D+00  0.14042179D+00  0.25395360D+00 -0.21476889D+00
 -0.38386250D+00 -0.11011122D+00  0.16932080D+00  0.41403783D-01  0.00000000D+00
  0.00000000D+00  0.00000000D+00  0.00000000D+00  0.00000000D+00  0.11847311D-14
  0.15371776D-14  0.16577874D-14  0.13291643D-14  0.67891337D-15  0.41815789D+00
  0.54255596D+00  0.58512591D+00  0.46913642D+00  0.23962651D+00  0.00000000D+00
 -0.94823421D-14  0.62565393D-01  0.00000000D+00  0.29004499D-13 -0.32232078D-01
  0.00000000D+00 -0.54446197D-13 -0.18153931D-01  0.00000000D+00 -0.43451456D-14
 -0.10602012D-02  0.34565751D-02  0.34565751D-02 -0.69131501D-02  0.00000000D+00
  0.00000000D+00 -0.35412830D-13  0.15159509D-02  0.15159509D-02 -0.30319017D-02
  0.00000000D+00  0.00000000D+00  0.23958444D-13  0.76881955D-04  0.76881955D-04
 -0.15376391D-03  0.00000000D+00  0.00000000D+00  0.24814650D-13  0.00000000D+00
  0.49356833D-03  0.95857470D-03  0.00000000D+00 -0.14807050D-02 -0.14378620D-02
  0.00000000D+00 -0.92853945D-14 -0.14378620D-02  0.00000000D+00  0.20880200D-01
  0.37684510D-01  0.55634931D-01  0.32545183D-01  0.27077412D-02  0.00000000D+00
 -0.14789803D-01  0.87654719D-02  0.00000000D+00 -0.36396776D-02  0.22863969D-02
 -0.23536650D-02  0.24819067D-02 -0.12824173D-03  0.00000000D+00  0.00000000D+00
 -0.69222993D-02  0.20880200D-01  0.37684510D-01  0.55634931D-01  0.32545183D-01
  0.27077412D-02  0.12808345D-01  0.73949015D-02  0.87654719D-02  0.31520532D-02
  0.18198388D-02  0.22863969D-02  0.12730138D-02 -0.11447721D-02 -0.12824173D-03
  0.41877280D-02  0.59948871D-02  0.34611497D-02  0.20880200D-01  0.37684510D-01
  0.55634931D-01  0.32545183D-01  0.27077412D-02 -0.12808345D-01  0.73949015D-02
  0.87654719D-02 -0.31520532D-02  0.18198388D-02  0.22863969D-02  0.12730138D-02
 -0.11447721D-02 -0.12824173D-03 -0.41877280D-02 -0.59948871D-02  0.34611497D-02
MO    7     MO 0.0        OCC NO =    2.0000000  ORB. ENERGY =   -0.442345
  0.00000000D+00  0.00000000D+00  0.00000000D+00  0.00000000D+00  0.00000000D+00
  0.00000000D+00  0.00000000D+00  0.00000000D+00  0.00000000D+00  0.00000000D+00
  0.00000000D+00  0.00000000D+00  0.00000000D+00  0.00000000D+00 -0.15629881D+01
 -0.20279624D+01 -0.21870801D+01 -0.17535353D+01 -0.89567453D+00  0.00000000D+00
  0.00000000D+00  0.00000000D+00  0.00000000D+00  0.00000000D+00  0.00000000D+00
  0.00000000D+00  0.00000000D+00  0.00000000D+00  0.00000000D+00 -0.22745541D+00
  0.00000000D+00  0.00000000D+00  0.13304245D+00  0.00000000D+00  0.00000000D+00
  0.87990328D-01  0.00000000D+00  0.00000000D+00  0.84350989D-02  0.00000000D+00
  0.00000000D+00  0.00000000D+00  0.00000000D+00  0.00000000D+00 -0.13314143D+00
 -0.19010286D+00  0.00000000D+00  0.00000000D+00  0.00000000D+00  0.00000000D+00
 -0.43883018D-01 -0.64567971D-01  0.00000000D+00  0.00000000D+00  0.00000000D+00
  0.00000000D+00 -0.61989738D-02 -0.10130645D-01  0.00000000D+00 -0.34729476D-03
  0.00000000D+00  0.00000000D+00 -0.34729476D-03  0.00000000D+00  0.00000000D+00
  0.13891791D-02  0.00000000D+00  0.00000000D+00  0.10588702D-01  0.00000000D+00
  0.00000000D+00  0.00000000D+00  0.00000000D+00  0.00000000D+00  0.50945824D-02
  0.00000000D+00  0.00000000D+00  0.38882914D-02  0.00000000D+00  0.00000000D+00
  0.00000000D+00  0.00000000D+00  0.00000000D+00 -0.28061111D-02  0.61468637D-03
  0.00000000D+00 -0.35824045D-01 -0.64655108D-01 -0.95452547D-01 -0.64404093D-01
 -0.16981743D-01 -0.11342593D-01 -0.94900075D-02 -0.12649790D-01  0.87057032D-04
 -0.21946437D-02 -0.32650440D-02 -0.16308551D-03  0.69852894D-03 -0.53544343D-03
 -0.42984711D-02 -0.71831806D-02 -0.45021006D-02  0.35824045D-01  0.64655108D-01
  0.95452547D-01  0.64404093D-01  0.16981743D-01 -0.11342593D-01  0.94900075D-02
  0.12649790D-01  0.87057032D-04  0.21946437D-02  0.32650440D-02  0.16308551D-03
 -0.69852894D-03  0.53544343D-03 -0.42984711D-02 -0.71831806D-02  0.45021006D-02
MO    8     MO 0.0        OCC NO =    2.0000000  ORB. ENERGY =   -0.442345
  0.28731528D-14  0.53531496D-14  0.90639785D-14  0.13734094D-13  0.17147343D-13
  0.14702365D-13  0.53283333D-14 -0.41674616D-14 -0.75368776D-14  0.63739474D-14
 -0.17442889D-13 -0.50035047D-14 -0.52699605D-14  0.57059755D-13  0.00000000D+00
  0.00000000D+00  0.00000000D+00  0.00000000D+00  0.00000000D+00 -0.15629881D+01
 -0.20279624D+01 -0.21870801D+01 -0.17535353D+01 -0.89567453D+00 -0.57711842D-14
 -0.74880576D-14 -0.80755846D-14 -0.64747618D-14 -0.33071927D-14  0.00000000D+00
 -0.22745541D+00 -0.82929458D-14  0.00000000D+00  0.13304245D+00  0.20024020D-13
  0.00000000D+00  0.87990328D-01 -0.34355457D-13  0.00000000D+00  0.84350989D-02
 -0.72592605D-14 -0.66570714D-01  0.66570714D-01  0.14286000D-14  0.00000000D+00
  0.00000000D+00 -0.19010286D+00 -0.21941509D-01  0.21941509D-01 -0.22859548D-14
  0.00000000D+00  0.00000000D+00 -0.64567971D-01 -0.30994869D-02  0.30994869D-02
  0.37857905D-15  0.00000000D+00  0.00000000D+00 -0.10130645D-01  0.00000000D+00
 -0.34729476D-03  0.49989255D-14  0.00000000D+00 -0.34729476D-03  0.52943512D-02
  0.00000000D+00  0.13891791D-02 -0.52943512D-02  0.00000000D+00  0.41366044D-01
  0.74657288D-01  0.11021911D+00  0.74367441D-01  0.19608828D-01  0.00000000D+00
 -0.16821651D-01  0.14606719D-01  0.00000000D+00 -0.11800211D-02  0.37701480D-02
 -0.27071006D-02  0.20888238D-02  0.61827682D-03  0.00000000D+00  0.00000000D+00
 -0.97824696D-02 -0.20683022D-01 -0.37328644D-01 -0.55109554D-01 -0.37183721D-01
 -0.98044138D-02 -0.94900075D-02 -0.38447602D-03 -0.73033594D-02 -0.21946437D-02
  0.26212132D-02 -0.18850740D-02 -0.14972130D-02  0.18063514D-02 -0.30913841D-03
 -0.86161445D-03 -0.45021006D-02 -0.19846026D-02 -0.20683022D-01 -0.37328644D-01
 -0.55109554D-01 -0.37183721D-01 -0.98044138D-02  0.94900075D-02 -0.38447602D-03
 -0.73033594D-02  0.21946437D-02  0.26212132D-02 -0.18850740D-02 -0.14972130D-02
  0.18063514D-02 -0.30913841D-03  0.86161445D-03  0.45021006D-02 -0.19846026D-02
MO    9     MO 0.0        OCC NO =    2.0000000  ORB. ENERGY =   -0.328293
  0.43179433D-01  0.80450285D-01  0.13621881D+00  0.20640406D+00  0.25770037D+00
  0.22095580D+00  0.80077332D-01  0.68540840D-01  0.12395649D+00 -0.10483017D+00
 -0.19518824D+00 -0.55989881D-01  0.94061531D-01  0.47017936D-01  0.00000000D+00
  0.00000000D+00  0.00000000D+00  0.00000000D+00  0.00000000D+00  0.12803968D-13
  0.16613029D-13  0.17916518D-13  0.14364927D-13  0.73373483D-14 -0.17867821D+01
 -0.23183331D+01 -0.25002339D+01 -0.20046126D+01 -0.10239203D+01  0.00000000D+00
  0.12511728D-14 -0.25846285D+00  0.00000000D+00  0.10690055D-13  0.16259802D+00
  0.00000000D+00 -0.30414641D-13  0.10117763D+00  0.00000000D+00 -0.52176868D-14
  0.20756608D-01  0.87675054D-02  0.87675054D-02 -0.17535011D-01  0.00000000D+00
  0.00000000D+00 -0.17132691D-13  0.26736144D-02  0.26736144D-02 -0.53472288D-02
  0.00000000D+00  0.00000000D+00  0.12698703D-13  0.13462980D-02  0.13462980D-02
 -0.26925960D-02  0.00000000D+00  0.00000000D+00  0.16011890D-13  0.00000000D+00
 -0.63545926D-03 -0.13324831D-02  0.00000000D+00  0.19063778D-02  0.19987247D-02
  0.00000000D+00 -0.60297828D-14  0.19987247D-02  0.00000000D+00 -0.14774938D-01
 -0.26665755D-01 -0.39367566D-01 -0.33107312D-01 -0.66588886D-02  0.00000000D+00
  0.82549846D-02  0.21395823D-02  0.00000000D+00  0.35731026D-02  0.25915393D-02
  0.14290052D-02 -0.25256909D-02  0.10966857D-02  0.00000000D+00  0.00000000D+00
  0.43765887D-02 -0.14774938D-01 -0.26665755D-01 -0.39367566D-01 -0.33107312D-01
 -0.66588886D-02 -0.71490264D-02 -0.41274923D-02  0.21395823D-02 -0.30943977D-02
 -0.17865513D-02  0.25915393D-02 -0.15370169D-02  0.44033120D-03  0.10966857D-02
 -0.34248674D-02 -0.37902370D-02 -0.21882944D-02 -0.14774938D-01 -0.26665755D-01
 -0.39367566D-01 -0.33107312D-01 -0.66588886D-02  0.71490264D-02 -0.41274923D-02
  0.21395823D-02  0.30943977D-02 -0.17865513D-02  0.25915393D-02 -0.15370169D-02
  0.44033120D-03  0.10966857D-02  0.34248674D-02  0.37902370D-02 -0.21882944D-02
END DATA
 TOTAL ENERGY =     -343.122801267767 THE VIRIAL(-V/T)=   2.00166977
