 Default is to use a total of   4 processors:
                                4 via shared-memory
                                1 via Linda
 Entering Link 1 = D:\study\G16W\l1.exe PID=     11252.
  
 Copyright (c) 1988,1990,1992,1993,1995,1998,2003,2009,2016,
            Gaussian, Inc.  All Rights Reserved.
  
 This is part of the Gaussian(R) 16 program.  It is based on
 the Gaussian(R) 09 system (copyright 2009, Gaussian, Inc.),
 the Gaussian(R) 03 system (copyright 2003, Gaussian, Inc.),
 the Gaussian(R) 98 system (copyright 1998, Gaussian, Inc.),
 the Gaussian(R) 94 system (copyright 1995, Gaussian, Inc.),
 the Gaussian 92(TM) system (copyright 1992, Gaussian, Inc.),
 the Gaussian 90(TM) system (copyright 1990, Gaussian, Inc.),
 the Gaussian 88(TM) system (copyright 1988, Gaussian, Inc.),
 the Gaussian 86(TM) system (copyright 1986, Carnegie Mellon
 University), and the Gaussian 82(TM) system (copyright 1983,
 Carnegie Mellon University). Gaussian is a federally registered
 trademark of Gaussian, Inc.
  
 This software contains proprietary and confidential information,
 including trade secrets, belonging to Gaussian, Inc.
  
 This software is provided under written license and may be
 used, copied, transmitted, or stored only in accord with that
 written license.
  
 The following legend is applicable only to US Government
 contracts under FAR:
  
                    RESTRICTED RIGHTS LEGEND
  
 Use, reproduction and disclosure by the US Government is
 subject to restrictions as set forth in subparagraphs (a)
 and (c) of the Commercial Computer Software - Restricted
 Rights clause in FAR 52.227-19.
  
 Gaussian, Inc.
 340 Quinnipiac St., Bldg. 40, Wallingford CT 06492
  
  
 ---------------------------------------------------------------
 Warning -- This program may not be used in any manner that
 competes with the business of Gaussian, Inc. or will provide
 assistance to any competitor of Gaussian, Inc.  The licensee
 of this program is prohibited from giving any competitor of
 Gaussian, Inc. access to this program.  By using this program,
 the user acknowledges that Gaussian, Inc. is engaged in the
 business of creating and licensing software in the field of
 computational chemistry and represents and warrants to the
 licensee that it is not a competitor of Gaussian, Inc. and that
 it will not use this program in any manner prohibited above.
 ---------------------------------------------------------------
  

 Cite this work as:
 Gaussian 16, Revision A.03,
 M. J. Frisch, G. W. Trucks, H. B. Schlegel, G. E. Scuseria, 
 M. A. Robb, J. R. Cheeseman, G. Scalmani, V. Barone, 
 G. A. Petersson, H. Nakatsuji, X. Li, M. Caricato, A. V. Marenich, 
 J. Bloino, B. G. Janesko, R. Gomperts, B. Mennucci, H. P. Hratchian, 
 J. V. Ortiz, A. F. Izmaylov, J. L. Sonnenberg, D. Williams-Young, 
 F. Ding, F. Lipparini, F. Egidi, J. Goings, B. Peng, A. Petrone, 
 T. Henderson, D. Ranasinghe, V. G. Zakrzewski, J. Gao, N. Rega, 
 G. Zheng, W. Liang, M. Hada, M. Ehara, K. Toyota, R. Fukuda, 
 J. Hasegawa, M. Ishida, T. Nakajima, Y. Honda, O. Kitao, H. Nakai, 
 T. Vreven, K. Throssell, J. A. Montgomery, Jr., J. E. Peralta, 
 F. Ogliaro, M. J. Bearpark, J. J. Heyd, E. N. Brothers, K. N. Kudin, 
 V. N. Staroverov, T. A. Keith, R. Kobayashi, J. Normand, 
 K. Raghavachari, A. P. Rendell, J. C. Burant, S. S. Iyengar, 
 J. Tomasi, M. Cossi, J. M. Millam, M. Klene, C. Adamo, R. Cammi, 
 J. W. Ochterski, R. L. Martin, K. Morokuma, O. Farkas, 
 J. B. Foresman, and D. J. Fox, Gaussian, Inc., Wallingford CT, 2016.
 
 ******************************************
 Gaussian 16:  EM64W-G16RevA.03 17-Dec-2016
                29-Oct-2019 
 ******************************************
 ----------------------------
 # b3lyp/6-31g(d) pop=nboread
 ----------------------------
 1/38=1,172=1/1;
 2/12=2,17=6,18=5,40=1/2;
 3/5=1,6=6,7=1,11=2,25=1,30=1,74=-5/1,2,3;
 4//1;
 5/5=2,38=5/2;
 6/7=2,8=2,9=2,10=2,28=1,40=2/1,7;
 99/5=1,9=1/99;
 ------------------
 B3LYP/6-31G* opted
 ------------------
 Symbolic Z-matrix:
 Charge =  0 Multiplicity = 1
 C                     0.        3.5617   -0.29632 
 C                     0.        2.83733   0.87908 
 C                     0.        1.42294   0.86601 
 C                     0.        0.72894  -0.38091 
 C                     0.        1.50038  -1.56688 
 C                     0.        2.88295  -1.52931 
 C                     0.        0.67978   2.09387 
 C                     0.       -0.72894  -0.38091 
 C                     0.       -1.42294   0.86601 
 C                     0.       -0.67978   2.09387 
 C                     0.       -2.83733   0.87908 
 H                     0.       -3.34813   1.83937 
 C                     0.       -3.5617   -0.29632 
 C                     0.       -2.88295  -1.52931 
 C                     0.       -1.50038  -1.56688 
 H                     0.        1.2327    3.03032 
 H                     0.        4.64805  -0.27181 
 H                     0.        3.34813   1.83937 
 H                     0.        1.00691  -2.53294 
 H                     0.        3.44695  -2.45824 
 H                     0.       -1.2327    3.03032 
 H                     0.       -4.64805  -0.27181 
 H                     0.       -3.44695  -2.45824 
 H                     0.       -1.00691  -2.53294 
 
                          Input orientation:                          
 ---------------------------------------------------------------------
 Center     Atomic      Atomic             Coordinates (Angstroms)
 Number     Number       Type             X           Y           Z
 ---------------------------------------------------------------------
      1          6           0        0.000000    3.561704   -0.296318
      2          6           0        0.000000    2.837328    0.879084
      3          6           0        0.000000    1.422938    0.866009
      4          6           0        0.000000    0.728945   -0.380909
      5          6           0        0.000000    1.500382   -1.566879
      6          6           0        0.000000    2.882947   -1.529307
      7          6           0        0.000000    0.679781    2.093872
      8          6           0        0.000000   -0.728945   -0.380909
      9          6           0        0.000000   -1.422938    0.866009
     10          6           0        0.000000   -0.679781    2.093872
     11          6           0        0.000000   -2.837328    0.879084
     12          1           0        0.000000   -3.348132    1.839368
     13          6           0        0.000000   -3.561704   -0.296318
     14          6           0        0.000000   -2.882947   -1.529307
     15          6           0        0.000000   -1.500382   -1.566879
     16          1           0        0.000000    1.232702    3.030317
     17          1           0        0.000000    4.648053   -0.271806
     18          1           0        0.000000    3.348132    1.839368
     19          1           0        0.000000    1.006910   -2.532945
     20          1           0        0.000000    3.446952   -2.458242
     21          1           0        0.000000   -1.232702    3.030317
     22          1           0        0.000000   -4.648053   -0.271806
     23          1           0        0.000000   -3.446952   -2.458242
     24          1           0        0.000000   -1.006910   -2.532945
 ---------------------------------------------------------------------
                    Distance matrix (angstroms):
                    1          2          3          4          5
     1  C    0.000000
     2  C    1.380685   0.000000
     3  C    2.434199   1.414451   0.000000
     4  C    2.834023   2.456189   1.427037   0.000000
     5  C    2.421441   2.787501   2.434121   1.414793   0.000000
     6  C    1.407471   2.408823   2.805203   2.441013   1.383075
     7  C    3.744127   2.476029   1.435245   2.475269   3.751597
     8  C    4.291483   3.782312   2.487048   1.457889   2.525158
     9  C    5.118366   4.260287   2.845877   2.487048   3.803255
    10  C    4.868594   3.720991   2.434969   2.847639   4.260776
    11  C    6.506089   5.674657   4.260287   3.782312   4.979806
    12  H    7.232357   6.259558   4.869347   4.642433   5.925421
    13  C    7.123409   6.506089   5.118366   4.291483   5.219104
    14  C    6.561539   6.206601   4.927290   3.790063   4.383490
    15  C    5.219104   4.979806   3.803255   2.525158   3.000764
    16  H    4.060881   2.683772   2.172652   3.448222   4.604983
    17  H    1.086626   2.145524   3.419940   3.920627   3.403682
    18  H    2.146338   1.087688   2.157266   3.433624   3.875139
    19  H    3.395507   3.871998   3.424320   2.169913   1.084803
    20  H    2.164968   3.392549   3.891950   3.420946   2.140948
    21  H    5.835480   4.603580   3.425880   3.935038   5.348267
    22  H    8.209795   7.573341   6.176695   5.378105   6.283349
    23  H    7.334519   7.115471   5.896310   4.664056   5.026991
    24  H    5.086722   5.140050   4.178164   2.764860   2.686968
                    6          7          8          9         10
     6  C    0.000000
     7  C    4.240444   0.000000
     8  C    3.790063   2.847639   0.000000
     9  C    4.927290   2.434969   1.427037   0.000000
    10  C    5.081383   1.359563   2.475269   1.435245   0.000000
    11  C    6.206601   3.720991   2.456189   1.414451   2.476029
    12  H    7.083383   4.035946   3.433624   2.157266   2.680460
    13  C    6.561539   4.868594   2.834023   2.434199   3.744127
    14  C    5.765893   5.081383   2.441013   2.805203   4.240444
    15  C    4.383490   4.260776   1.414793   2.434121   3.751597
    16  H    4.849070   1.087498   3.935038   3.425880   2.129442
    17  H    2.167236   4.619915   5.378105   6.176695   5.829430
    18  H    3.400643   2.680460   4.642433   4.869347   4.035946
    19  H    2.127628   4.638366   2.764860   4.178164   4.924668
    20  H    1.086748   5.327192   4.664056   5.896310   6.144238
    21  H    6.142372   2.129442   3.448222   2.172652   1.087498
    22  H    7.635265   5.829430   3.920627   3.419940   4.619915
    23  H    6.397697   6.144238   3.420946   3.891950   5.327192
    24  H    4.017247   4.924668   2.169913   3.424320   4.638366
                   11         12         13         14         15
    11  C    0.000000
    12  H    1.087688   0.000000
    13  C    1.380685   2.146338   0.000000
    14  C    2.408823   3.400643   1.407471   0.000000
    15  C    2.787501   3.875139   2.421441   1.383075   0.000000
    16  H    4.603580   4.733117   5.835480   6.142372   5.348267
    17  H    7.573341   8.270190   8.209795   7.635265   6.283349
    18  H    6.259558   6.696264   7.232357   7.083383   5.925421
    19  H    5.140050   6.171184   5.086722   4.017247   2.686968
    20  H    7.115471   8.040063   7.334519   6.397697   5.026991
    21  H    2.683772   2.427633   4.060881   4.849070   4.604983
    22  H    2.145524   2.479285   1.086626   2.167236   3.403682
    23  H    3.392549   4.298746   2.164968   1.086748   2.140948
    24  H    3.871998   4.959681   3.395507   2.127628   1.084803
                   16         17         18         19         20
    16  H    0.000000
    17  H    4.750647   0.000000
    18  H    2.427633   2.479285   0.000000
    19  H    5.567842   4.286102   4.959681   0.000000
    20  H    5.918377   2.494624   4.298746   2.441184   0.000000
    21  H    2.465403   6.744427   4.733117   5.997144   7.212727
    22  H    6.744427   9.296107   8.270190   6.090268   8.385083
    23  H    7.212727   8.385083   8.040063   4.454488   6.893903
    24  H    5.997144   6.090268   6.171184   2.013821   4.454488
                   21         22         23         24
    21  H    0.000000
    22  H    4.750647   0.000000
    23  H    5.918377   2.494624   0.000000
    24  H    5.567842   4.286102   2.441184   0.000000
 Stoichiometry    C14H10
 Framework group  C2V[SGV(C14H10)]
 Deg. of freedom    23
 Full point group                 C2V     NOp   4
 Largest Abelian subgroup         C2V     NOp   4
 Largest concise Abelian subgroup C2      NOp   2
                         Standard orientation:                         
 ---------------------------------------------------------------------
 Center     Atomic      Atomic             Coordinates (Angstroms)
 Number     Number       Type             X           Y           Z
 ---------------------------------------------------------------------
      1          6           0        0.000000    3.561704   -0.296318
      2          6           0        0.000000    2.837328    0.879084
      3          6           0        0.000000    1.422938    0.866009
      4          6           0        0.000000    0.728945   -0.380909
      5          6           0        0.000000    1.500382   -1.566879
      6          6           0        0.000000    2.882947   -1.529307
      7          6           0        0.000000    0.679781    2.093872
      8          6           0        0.000000   -0.728945   -0.380909
      9          6           0        0.000000   -1.422938    0.866009
     10          6           0        0.000000   -0.679781    2.093872
     11          6           0        0.000000   -2.837328    0.879084
     12          1           0        0.000000   -3.348132    1.839368
     13          6           0        0.000000   -3.561704   -0.296318
     14          6           0        0.000000   -2.882947   -1.529307
     15          6           0        0.000000   -1.500382   -1.566879
     16          1           0        0.000000    1.232702    3.030317
     17          1           0        0.000000    4.648053   -0.271806
     18          1           0        0.000000    3.348132    1.839368
     19          1           0        0.000000    1.006910   -2.532945
     20          1           0        0.000000    3.446952   -2.458242
     21          1           0        0.000000   -1.232702    3.030317
     22          1           0        0.000000   -4.648053   -0.271806
     23          1           0        0.000000   -3.446952   -2.458242
     24          1           0        0.000000   -1.006910   -2.532945
 ---------------------------------------------------------------------
 Rotational constants (GHZ):           1.6146336           0.5500403           0.4102759
 Standard basis: 6-31G(d) (6D, 7F)
 There are    87 symmetry adapted cartesian basis functions of A1  symmetry.
 There are    28 symmetry adapted cartesian basis functions of A2  symmetry.
 There are    28 symmetry adapted cartesian basis functions of B1  symmetry.
 There are    87 symmetry adapted cartesian basis functions of B2  symmetry.
 There are    87 symmetry adapted basis functions of A1  symmetry.
 There are    28 symmetry adapted basis functions of A2  symmetry.
 There are    28 symmetry adapted basis functions of B1  symmetry.
 There are    87 symmetry adapted basis functions of B2  symmetry.
   230 basis functions,   432 primitive gaussians,   230 cartesian basis functions
    47 alpha electrons       47 beta electrons
       nuclear repulsion energy       774.4085521589 Hartrees.
 NAtoms=   24 NActive=   24 NUniq=   12 SFac= 4.00D+00 NAtFMM=   60 NAOKFM=F Big=F
 Integral buffers will be    131072 words long.
 Raffenetti 2 integral format.
 Two-electron integral symmetry is turned on.
 One-electron integrals computed using PRISM.
 NBasis=   230 RedAO= T EigKep=  2.10D-04  NBF=    87    28    28    87
 NBsUse=   230 1.00D-06 EigRej= -1.00D+00 NBFU=    87    28    28    87
 ExpMin= 1.61D-01 ExpMax= 3.05D+03 ExpMxC= 4.57D+02 IAcc=3 IRadAn=         5 AccDes= 0.00D+00
 Harris functional with IExCor=  402 and IRadAn=       5 diagonalized for initial guess.
 HarFok:  IExCor=  402 AccDes= 0.00D+00 IRadAn=         5 IDoV= 1 UseB2=F ITyADJ=14
 ICtDFT=  3500011 ScaDFX=  1.000000  1.000000  1.000000  1.000000
 FoFCou: FMM=F IPFlag=           0 FMFlag=      100000 FMFlg1=           0
         NFxFlg=           0 DoJE=T BraDBF=F KetDBF=T FulRan=T
         wScrn=  0.000000 ICntrl=       500 IOpCl=  0 I1Cent=   200000004 NGrid=           0
         NMat0=    1 NMatS0=      1 NMatT0=    0 NMatD0=    1 NMtDS0=    0 NMtDT0=    0
 Petite list used in FoFCou.
 Initial guess orbital symmetries:
       Occupied  (B2) (A1) (A1) (B2) (A1) (B2) (B2) (A1) (B2) (A1)
                 (B2) (A1) (A1) (B2) (A1) (B2) (A1) (A1) (B2) (B2)
                 (A1) (A1) (B2) (A1) (B2) (B2) (A1) (A1) (B2) (A1)
                 (B2) (A1) (A1) (B2) (A1) (B2) (B1) (B2) (A1) (A1)
                 (A2) (B2) (B1) (B1) (A2) (A2) (B1)
       Virtual   (A2) (B1) (B1) (A2) (A2) (B1) (A1) (A1) (B2) (A1)
                 (B2) (A2) (A1) (B2) (A1) (B2) (A1) (B2) (B2) (A1)
                 (B2) (A1) (A1) (B2) (A1) (B2) (B2) (B2) (B2) (A1)
                 (A1) (A1) (B1) (A1) (A2) (B2) (B1) (B2) (A1) (A1)
                 (B2) (B2) (B1) (A1) (A2) (B2) (A1) (B2) (A1) (A1)
                 (B2) (A2) (B1) (B1) (B1) (A2) (A2) (A2) (A1) (B2)
                 (B1) (B2) (A1) (A1) (B2) (A1) (B2) (A1) (A2) (B2)
                 (B2) (A1) (B2) (A1) (A1) (B2) (B2) (B2) (A1) (A1)
                 (B2) (A1) (B2) (A1) (B2) (B1) (A1) (B1) (B2) (A2)
                 (A1) (B2) (B1) (A2) (B1) (A2) (B1) (A1) (B2) (B1)
                 (A2) (A2) (B1) (A1) (B2) (A1) (B2) (B2) (A1) (A1)
                 (A1) (A2) (B2) (B2) (B1) (A1) (A1) (B2) (A1) (A1)
                 (B2) (A1) (B2) (B2) (A2) (B2) (A1) (B1) (A1) (B2)
                 (B2) (A1) (A2) (B1) (A2) (B1) (B2) (A1) (A2) (B1)
                 (A1) (A2) (B1) (A2) (B2) (B2) (A1) (B2) (A1) (B1)
                 (A2) (B2) (A1) (A1) (B2) (A2) (A1) (A1) (B2) (B2)
                 (A1) (B2) (B2) (B2) (A1) (B2) (A1) (B2) (B2) (A1)
                 (B2) (A1) (A1) (B2) (A1) (B2) (B2) (A1) (A1) (B2)
                 (B2) (A1) (B2)
 The electronic state of the initial guess is 1-A1.
 Keep R1 ints in memory in symmetry-blocked form, NReq=447413229.
 Requested convergence on RMS density matrix=1.00D-08 within 128 cycles.
 Requested convergence on MAX density matrix=1.00D-06.
 Requested convergence on             energy=1.00D-06.
 No special actions if energy rises.
 Integral accuracy reduced to 1.0D-05 until final iterations.
 Initial convergence to 1.0D-05 achieved.  Increase integral accuracy.
 SCF Done:  E(RB3LYP) =  -539.538630459     A.U. after   13 cycles
            NFock= 13  Conv=0.96D-08     -V/T= 2.0099

 **********************************************************************

            Population analysis using the SCF density.

 **********************************************************************

 Orbital symmetries:
       Occupied  (A1) (B2) (B2) (A1) (B2) (A1) (A1) (B2) (A1) (B2)
                 (A1) (B2) (B2) (A1) (A1) (B2) (A1) (A1) (B2) (B2)
                 (A1) (A1) (B2) (A1) (B2) (B2) (A1) (A1) (B2) (A1)
                 (B2) (A1) (A1) (B2) (A1) (B1) (B2) (B2) (A1) (A2)
                 (A1) (B2) (B1) (B1) (A2) (A2) (B1)
       Virtual   (A2) (B1) (B1) (A2) (A2) (A1) (A1) (B2) (B2) (B1)
                 (A1) (A1) (B2) (A1) (B2) (A2) (A1) (B2) (B2) (A1)
                 (B2) (A1) (A1) (B2) (A1) (B2) (B2) (A1) (B2) (B2)
                 (A1) (B1) (A2) (A1) (A1) (B1) (A1) (B2) (B2) (B2)
                 (B1) (A1) (A2) (A1) (B2) (A1) (B2) (A1) (B2) (A1)
                 (A2) (B1) (B1) (B2) (B1) (A2) (A2) (A2) (B1) (A1)
                 (B2) (A1) (B2) (A1) (B2) (A1) (B2) (A2) (A1) (B2)
                 (B2) (A1) (B2) (A1) (A1) (B2) (B2) (B2) (A1) (A1)
                 (B2) (A1) (B2) (A1) (B2) (A1) (B1) (B2) (A1) (B1)
                 (A2) (B2) (B1) (A2) (B1) (A1) (B2) (A2) (B1) (A1)
                 (B2) (B1) (A2) (A1) (A2) (B1) (B2) (B2) (A1) (A1)
                 (A1) (A2) (B2) (B2) (B1) (A1) (A1) (B2) (A1) (B2)
                 (A1) (B2) (A1) (B2) (A2) (B2) (A1) (B1) (A1) (B2)
                 (B2) (A1) (A2) (B1) (A2) (B1) (B2) (A1) (A2) (B1)
                 (A1) (B1) (A2) (B2) (A2) (B2) (A1) (B2) (B1) (A2)
                 (A1) (A1) (B2) (B2) (A1) (A2) (A1) (A1) (B2) (B2)
                 (A1) (B2) (B2) (B2) (A1) (B2) (A1) (B2) (B2) (A1)
                 (B2) (A1) (A1) (B2) (A1) (B2) (B2) (A1) (A1) (B2)
                 (B2) (A1) (B2)
 The electronic state is 1-A1.
 Alpha  occ. eigenvalues --  -10.19954 -10.19919 -10.19656 -10.19655 -10.18991
 Alpha  occ. eigenvalues --  -10.18991 -10.18973 -10.18947 -10.18947 -10.18907
 Alpha  occ. eigenvalues --  -10.18907 -10.18901 -10.18881 -10.18881  -0.87777
 Alpha  occ. eigenvalues --   -0.84431  -0.80452  -0.77219  -0.75235  -0.72071
 Alpha  occ. eigenvalues --   -0.71461  -0.62875  -0.62200  -0.60696  -0.57993
 Alpha  occ. eigenvalues --   -0.53078  -0.52538  -0.49261  -0.47605  -0.47305
 Alpha  occ. eigenvalues --   -0.43427  -0.42823  -0.42348  -0.41943  -0.40639
 Alpha  occ. eigenvalues --   -0.39653  -0.39056  -0.36149  -0.35766  -0.35541
 Alpha  occ. eigenvalues --   -0.33072  -0.32189  -0.31135  -0.28110  -0.25945
 Alpha  occ. eigenvalues --   -0.22173  -0.21060
 Alpha virt. eigenvalues --   -0.03649  -0.03013   0.00941   0.03787   0.08288
 Alpha virt. eigenvalues --    0.09306   0.10510   0.10606   0.14780   0.14803
 Alpha virt. eigenvalues --    0.14823   0.16273   0.17022   0.18279   0.19680
 Alpha virt. eigenvalues --    0.22588   0.24020   0.24191   0.25991   0.28179
 Alpha virt. eigenvalues --    0.29590   0.30465   0.31086   0.32370   0.33447
 Alpha virt. eigenvalues --    0.37645   0.39622   0.46097   0.47438   0.49679
 Alpha virt. eigenvalues --    0.50426   0.50718   0.53235   0.53966   0.54915
 Alpha virt. eigenvalues --    0.55001   0.55586   0.56904   0.57413   0.57677
 Alpha virt. eigenvalues --    0.57969   0.58842   0.58881   0.60064   0.61684
 Alpha virt. eigenvalues --    0.61794   0.61892   0.62093   0.62232   0.63195
 Alpha virt. eigenvalues --    0.63558   0.63684   0.65288   0.66233   0.68914
 Alpha virt. eigenvalues --    0.69634   0.73873   0.75737   0.80090   0.80880
 Alpha virt. eigenvalues --    0.82273   0.83423   0.83772   0.84022   0.85235
 Alpha virt. eigenvalues --    0.86387   0.88388   0.88728   0.89943   0.90683
 Alpha virt. eigenvalues --    0.92538   0.94870   0.95084   0.95377   0.97155
 Alpha virt. eigenvalues --    0.99230   1.01284   1.04736   1.05067   1.07262
 Alpha virt. eigenvalues --    1.09076   1.11147   1.15547   1.17409   1.19329
 Alpha virt. eigenvalues --    1.20963   1.23310   1.23467   1.24447   1.24504
 Alpha virt. eigenvalues --    1.26715   1.31761   1.36297   1.40643   1.43197
 Alpha virt. eigenvalues --    1.44456   1.45363   1.46254   1.46972   1.48810
 Alpha virt. eigenvalues --    1.49156   1.49474   1.49592   1.50004   1.50090
 Alpha virt. eigenvalues --    1.50824   1.53032   1.63485   1.71786   1.73661
 Alpha virt. eigenvalues --    1.76662   1.78718   1.81496   1.85354   1.85626
 Alpha virt. eigenvalues --    1.88972   1.89748   1.90991   1.91287   1.92883
 Alpha virt. eigenvalues --    1.94692   1.95248   1.98132   1.99640   2.00768
 Alpha virt. eigenvalues --    2.02379   2.02761   2.08678   2.11519   2.12243
 Alpha virt. eigenvalues --    2.15770   2.16518   2.19825   2.20469   2.23001
 Alpha virt. eigenvalues --    2.23821   2.24691   2.28429   2.30244   2.30974
 Alpha virt. eigenvalues --    2.30980   2.34703   2.34948   2.37498   2.38533
 Alpha virt. eigenvalues --    2.43994   2.52759   2.60759   2.61670   2.61842
 Alpha virt. eigenvalues --    2.62568   2.64578   2.65961   2.68647   2.69197
 Alpha virt. eigenvalues --    2.69480   2.76910   2.81131   2.81791   2.83150
 Alpha virt. eigenvalues --    2.84703   2.88716   2.91445   2.96744   3.02305
 Alpha virt. eigenvalues --    3.15249   3.34812   3.39199   3.52434   4.07414
 Alpha virt. eigenvalues --    4.09324   4.09961   4.11246   4.12490   4.15159
 Alpha virt. eigenvalues --    4.15952   4.26974   4.29351   4.37507   4.41498
 Alpha virt. eigenvalues --    4.47865   4.63908   4.86800
          Condensed to atoms (all electrons):
               1          2          3          4          5          6
     1  C    4.898788   0.507609  -0.006621  -0.041108  -0.021279   0.509071
     2  C    0.507609   5.098704   0.464538  -0.023949  -0.068421  -0.020249
     3  C   -0.006621   0.464538   4.750775   0.446959  -0.067740  -0.035896
     4  C   -0.041108  -0.023949   0.446959   4.984356   0.469901  -0.001789
     5  C   -0.021279  -0.068421  -0.067740   0.469901   5.130953   0.514205
     6  C    0.509071  -0.020249  -0.035896  -0.001789   0.514205   4.890937
     7  C    0.008274  -0.088645   0.398504  -0.009189   0.015212  -0.000594
     8  C   -0.000633   0.014321   0.002524   0.287860  -0.091622   0.007953
     9  C    0.000037  -0.000529  -0.047443   0.002524   0.011270  -0.000222
    10  C   -0.000405   0.009198   0.011105  -0.072581  -0.001522   0.000071
    11  C    0.000000  -0.000014  -0.000529   0.014321  -0.000093   0.000001
    12  H    0.000000   0.000000   0.000004  -0.000150   0.000002   0.000000
    13  C    0.000000   0.000000   0.000037  -0.000633  -0.000015   0.000000
    14  C    0.000000   0.000001  -0.000222   0.007953   0.000540  -0.000009
    15  C   -0.000015  -0.000093   0.011270  -0.091622  -0.022504   0.000540
    16  H    0.000197  -0.007953  -0.038794   0.004066  -0.000209   0.000016
    17  H    0.356881  -0.036986   0.002550   0.001075   0.004145  -0.040738
    18  H   -0.046010   0.354399  -0.042013   0.004425   0.000508   0.004684
    19  H    0.004496   0.000580   0.004888  -0.029521   0.345322  -0.046848
    20  H   -0.041322   0.004289   0.001076   0.002617  -0.037087   0.357201
    21  H    0.000003  -0.000205   0.002355   0.001016   0.000018   0.000000
    22  H    0.000000   0.000000  -0.000001   0.000015   0.000000   0.000000
    23  H    0.000000   0.000000   0.000002  -0.000202   0.000004   0.000000
    24  H   -0.000002   0.000001  -0.000232  -0.015056   0.005155   0.000297
               7          8          9         10         11         12
     1  C    0.008274  -0.000633   0.000037  -0.000405   0.000000   0.000000
     2  C   -0.088645   0.014321  -0.000529   0.009198  -0.000014   0.000000
     3  C    0.398504   0.002524  -0.047443   0.011105  -0.000529   0.000004
     4  C   -0.009189   0.287860   0.002524  -0.072581   0.014321  -0.000150
     5  C    0.015212  -0.091622   0.011270  -0.001522  -0.000093   0.000002
     6  C   -0.000594   0.007953  -0.000222   0.000071   0.000001   0.000000
     7  C    5.157183  -0.072581   0.011105   0.462477   0.009198   0.000325
     8  C   -0.072581   4.984356   0.446959  -0.009189  -0.023949   0.004425
     9  C    0.011105   0.446959   4.750775   0.398504   0.464538  -0.042013
    10  C    0.462477  -0.009189   0.398504   5.157183  -0.088645  -0.008638
    11  C    0.009198  -0.023949   0.464538  -0.088645   5.098704   0.354399
    12  H    0.000325   0.004425  -0.042013  -0.008638   0.354399   0.601764
    13  C   -0.000405  -0.041108  -0.006621   0.008274   0.507609  -0.046010
    14  C    0.000071  -0.001789  -0.035896  -0.000594  -0.020249   0.004684
    15  C   -0.001522   0.469901  -0.067740   0.015212  -0.068421   0.000508
    16  H    0.351241   0.001016   0.002355  -0.038518  -0.000205  -0.000013
    17  H   -0.000190   0.000015  -0.000001   0.000003   0.000000   0.000000
    18  H   -0.008638  -0.000150   0.000004   0.000325   0.000000   0.000000
    19  H   -0.000182  -0.015056  -0.000232   0.000013   0.000001   0.000000
    20  H    0.000009  -0.000202   0.000002   0.000000   0.000000   0.000000
    21  H   -0.038518   0.004066  -0.038794   0.351241  -0.007953   0.006855
    22  H    0.000003   0.001075   0.002550  -0.000190  -0.036986  -0.005298
    23  H    0.000000   0.002617   0.001076   0.000009   0.004289  -0.000193
    24  H    0.000013  -0.029521   0.004888  -0.000182   0.000580   0.000019
              13         14         15         16         17         18
     1  C    0.000000   0.000000  -0.000015   0.000197   0.356881  -0.046010
     2  C    0.000000   0.000001  -0.000093  -0.007953  -0.036986   0.354399
     3  C    0.000037  -0.000222   0.011270  -0.038794   0.002550  -0.042013
     4  C   -0.000633   0.007953  -0.091622   0.004066   0.001075   0.004425
     5  C   -0.000015   0.000540  -0.022504  -0.000209   0.004145   0.000508
     6  C    0.000000  -0.000009   0.000540   0.000016  -0.040738   0.004684
     7  C   -0.000405   0.000071  -0.001522   0.351241  -0.000190  -0.008638
     8  C   -0.041108  -0.001789   0.469901   0.001016   0.000015  -0.000150
     9  C   -0.006621  -0.035896  -0.067740   0.002355  -0.000001   0.000004
    10  C    0.008274  -0.000594   0.015212  -0.038518   0.000003   0.000325
    11  C    0.507609  -0.020249  -0.068421  -0.000205   0.000000   0.000000
    12  H   -0.046010   0.004684   0.000508  -0.000013   0.000000   0.000000
    13  C    4.898788   0.509071  -0.021279   0.000003   0.000000   0.000000
    14  C    0.509071   4.890937   0.514205   0.000000   0.000000   0.000000
    15  C   -0.021279   0.514205   5.130953   0.000018   0.000000   0.000002
    16  H    0.000003   0.000000   0.000018   0.595093  -0.000013   0.006855
    17  H    0.000000   0.000000   0.000000  -0.000013   0.593688  -0.005298
    18  H    0.000000   0.000000   0.000002   0.006855  -0.005298   0.601764
    19  H   -0.000002   0.000297   0.005155   0.000002  -0.000200   0.000019
    20  H    0.000000   0.000000   0.000004   0.000000  -0.004797  -0.000193
    21  H    0.000197   0.000016  -0.000209  -0.004834   0.000000  -0.000013
    22  H    0.356881  -0.040738   0.004145   0.000000   0.000000   0.000000
    23  H   -0.041322   0.357201  -0.037087   0.000000   0.000000   0.000000
    24  H    0.004496  -0.046848   0.345322   0.000000   0.000000   0.000000
              19         20         21         22         23         24
     1  C    0.004496  -0.041322   0.000003   0.000000   0.000000  -0.000002
     2  C    0.000580   0.004289  -0.000205   0.000000   0.000000   0.000001
     3  C    0.004888   0.001076   0.002355  -0.000001   0.000002  -0.000232
     4  C   -0.029521   0.002617   0.001016   0.000015  -0.000202  -0.015056
     5  C    0.345322  -0.037087   0.000018   0.000000   0.000004   0.005155
     6  C   -0.046848   0.357201   0.000000   0.000000   0.000000   0.000297
     7  C   -0.000182   0.000009  -0.038518   0.000003   0.000000   0.000013
     8  C   -0.015056  -0.000202   0.004066   0.001075   0.002617  -0.029521
     9  C   -0.000232   0.000002  -0.038794   0.002550   0.001076   0.004888
    10  C    0.000013   0.000000   0.351241  -0.000190   0.000009  -0.000182
    11  C    0.000001   0.000000  -0.007953  -0.036986   0.004289   0.000580
    12  H    0.000000   0.000000   0.006855  -0.005298  -0.000193   0.000019
    13  C   -0.000002   0.000000   0.000197   0.356881  -0.041322   0.004496
    14  C    0.000297   0.000000   0.000016  -0.040738   0.357201  -0.046848
    15  C    0.005155   0.000004  -0.000209   0.004145  -0.037087   0.345322
    16  H    0.000002   0.000000  -0.004834   0.000000   0.000000   0.000000
    17  H   -0.000200  -0.004797   0.000000   0.000000   0.000000   0.000000
    18  H    0.000019  -0.000193  -0.000013   0.000000   0.000000   0.000000
    19  H    0.597496  -0.005322   0.000000   0.000000   0.000001   0.005812
    20  H   -0.005322   0.594415   0.000000   0.000000   0.000000   0.000001
    21  H    0.000000   0.000000   0.595093  -0.000013   0.000000   0.000002
    22  H    0.000000   0.000000  -0.000013   0.593688  -0.004797  -0.000200
    23  H    0.000001   0.000000   0.000000  -0.004797   0.594415  -0.005322
    24  H    0.005812   0.000001   0.000002  -0.000200  -0.005322   0.597496
 Mulliken charges:
               1
     1  C   -0.127960
     2  C   -0.206594
     3  C    0.142904
     4  C    0.058712
     5  C   -0.186744
     6  C   -0.138631
     7  C   -0.193150
     8  C    0.058712
     9  C    0.142904
    10  C   -0.193150
    11  C   -0.206594
    12  H    0.129330
    13  C   -0.127960
    14  C   -0.138631
    15  C   -0.186744
    16  H    0.129677
    17  H    0.129864
    18  H    0.129330
    19  H    0.133282
    20  H    0.129309
    21  H    0.129677
    22  H    0.129864
    23  H    0.129309
    24  H    0.133282
 Sum of Mulliken charges =   0.00000
 Mulliken charges with hydrogens summed into heavy atoms:
               1
     1  C    0.001905
     2  C   -0.077264
     3  C    0.142904
     4  C    0.058712
     5  C   -0.053462
     6  C   -0.009322
     7  C   -0.063473
     8  C    0.058712
     9  C    0.142904
    10  C   -0.063473
    11  C   -0.077264
    13  C    0.001905
    14  C   -0.009322
    15  C   -0.053462
 Electronic spatial extent (au):  <R**2>=           2623.6826
 Charge=              0.0000 electrons
 Dipole moment (field-independent basis, Debye):
    X=              0.0000    Y=              0.0000    Z=             -0.0417  Tot=              0.0417
 Quadrupole moment (field-independent basis, Debye-Ang):
   XX=            -85.7566   YY=            -69.8475   ZZ=            -70.3423
   XY=              0.0000   XZ=              0.0000   YZ=              0.0000
 Traceless Quadrupole moment (field-independent basis, Debye-Ang):
   XX=            -10.4412   YY=              5.4680   ZZ=              4.9732
   XY=              0.0000   XZ=              0.0000   YZ=              0.0000
 Octapole moment (field-independent basis, Debye-Ang**2):
  XXX=              0.0000  YYY=              0.0000  ZZZ=             -0.7074  XYY=              0.0000
  XXY=              0.0000  XXZ=              0.0890  XZZ=              0.0000  YZZ=              0.0000
  YYZ=             -0.8144  XYZ=              0.0000
 Hexadecapole moment (field-independent basis, Debye-Ang**3):
 XXXX=            -88.9999 YYYY=          -2330.1687 ZZZZ=           -883.1304 XXXY=              0.0000
 XXXZ=              0.0000 YYYX=              0.0000 YYYZ=              0.0000 ZZZX=              0.0000
 ZZZY=              0.0000 XXYY=           -489.2302 XXZZ=           -191.7310 YYZZ=           -533.7412
 XXYZ=              0.0000 YYXZ=              0.0000 ZZXY=              0.0000
 N-N= 7.744085521589D+02 E-N=-2.797755004874D+03  KE= 5.342669399965D+02
 Symmetry A1   KE= 2.619907463651D+02
 Symmetry A2   KE= 6.534137917071D+00
 Symmetry B1   KE= 8.372832007913D+00
 Symmetry B2   KE= 2.573692237064D+02
 ******************************Gaussian NBO Version 3.1******************************
             N A T U R A L   A T O M I C   O R B I T A L   A N D
          N A T U R A L   B O N D   O R B I T A L   A N A L Y S I S
 ******************************Gaussian NBO Version 3.1******************************

       /RESON  / : Allow strongly delocalized NBO set
       /DMNAO  / : Print the NAO density matrix

 Analyzing the SCF density

 Job title: B3LYP/6-31G* opted                                              

 Storage needed:    160682 in NPA,    212881 in NBO ( 655356928 available)


 NATURAL POPULATIONS:  Natural atomic orbital occupancies 
                                                          
   NAO  Atom  No  lang   Type(AO)    Occupancy      Energy
 ----------------------------------------------------------
     1    C    1  S      Cor( 1S)     1.99909     -10.04155
     2    C    1  S      Val( 2S)     0.95987      -0.16450
     3    C    1  S      Ryd( 3S)     0.00055       1.32275
     4    C    1  S      Ryd( 4S)     0.00003       3.90632
     5    C    1  px     Val( 2p)     0.99852      -0.09906
     6    C    1  px     Ryd( 3p)     0.00073       0.62495
     7    C    1  py     Val( 2p)     1.19823      -0.05074
     8    C    1  py     Ryd( 3p)     0.00516       1.13852
     9    C    1  pz     Val( 2p)     1.06273      -0.03102
    10    C    1  pz     Ryd( 3p)     0.00452       0.69279
    11    C    1  dxy    Ryd( 3d)     0.00033       1.80282
    12    C    1  dxz    Ryd( 3d)     0.00055       1.94961
    13    C    1  dyz    Ryd( 3d)     0.00062       2.40227
    14    C    1  dx2y2  Ryd( 3d)     0.00069       2.22135
    15    C    1  dz2    Ryd( 3d)     0.00062       2.45226

    16    C    2  S      Cor( 1S)     1.99906     -10.03876
    17    C    2  S      Val( 2S)     0.94824      -0.15540
    18    C    2  S      Ryd( 3S)     0.00063       1.30063
    19    C    2  S      Ryd( 4S)     0.00005       3.93507
    20    C    2  px     Val( 2p)     0.99649      -0.09974
    21    C    2  px     Ryd( 3p)     0.00059       0.62723
    22    C    2  py     Val( 2p)     1.07801      -0.02896
    23    C    2  py     Ryd( 3p)     0.00412       0.80299
    24    C    2  pz     Val( 2p)     1.17280      -0.05069
    25    C    2  pz     Ryd( 3p)     0.00480       1.09674
    26    C    2  dxy    Ryd( 3d)     0.00044       1.92433
    27    C    2  dxz    Ryd( 3d)     0.00041       1.84002
    28    C    2  dyz    Ryd( 3d)     0.00076       2.44204
    29    C    2  dx2y2  Ryd( 3d)     0.00043       2.39181
    30    C    2  dz2    Ryd( 3d)     0.00073       2.32252

    31    C    3  S      Cor( 1S)     1.99902     -10.04084
    32    C    3  S      Val( 2S)     0.86784      -0.11824
    33    C    3  S      Ryd( 3S)     0.00045       1.09964
    34    C    3  S      Ryd( 4S)     0.00007       4.18527
    35    C    3  px     Val( 2p)     1.00004      -0.09312
    36    C    3  px     Ryd( 3p)     0.00037       0.71338
    37    C    3  py     Val( 2p)     1.09280      -0.04243
    38    C    3  py     Ryd( 3p)     0.00501       1.24579
    39    C    3  pz     Val( 2p)     1.08289      -0.03725
    40    C    3  pz     Ryd( 3p)     0.00515       1.20163
    41    C    3  dxy    Ryd( 3d)     0.00059       1.92364
    42    C    3  dxz    Ryd( 3d)     0.00051       1.92389
    43    C    3  dyz    Ryd( 3d)     0.00073       2.53068
    44    C    3  dx2y2  Ryd( 3d)     0.00042       2.40996
    45    C    3  dz2    Ryd( 3d)     0.00060       2.48644

    46    C    4  S      Cor( 1S)     1.99900     -10.04321
    47    C    4  S      Val( 2S)     0.85912      -0.11155
    48    C    4  S      Ryd( 3S)     0.00043       1.15085
    49    C    4  S      Ryd( 4S)     0.00007       4.15278
    50    C    4  px     Val( 2p)     0.99987      -0.09362
    51    C    4  px     Ryd( 3p)     0.00047       0.72200
    52    C    4  py     Val( 2p)     1.07284      -0.03028
    53    C    4  py     Ryd( 3p)     0.00472       1.29694
    54    C    4  pz     Val( 2p)     1.08808      -0.03815
    55    C    4  pz     Ryd( 3p)     0.00521       1.26176
    56    C    4  dxy    Ryd( 3d)     0.00056       1.92117
    57    C    4  dxz    Ryd( 3d)     0.00049       1.92364
    58    C    4  dyz    Ryd( 3d)     0.00069       2.53473
    59    C    4  dx2y2  Ryd( 3d)     0.00044       2.46233
    60    C    4  dz2    Ryd( 3d)     0.00060       2.47281

    61    C    5  S      Cor( 1S)     1.99907     -10.03899
    62    C    5  S      Val( 2S)     0.94388      -0.15323
    63    C    5  S      Ryd( 3S)     0.00062       1.25674
    64    C    5  S      Ryd( 4S)     0.00005       3.98011
    65    C    5  px     Val( 2p)     0.99713      -0.10035
    66    C    5  px     Ryd( 3p)     0.00047       0.63297
    67    C    5  py     Val( 2p)     1.09638      -0.03842
    68    C    5  py     Ryd( 3p)     0.00366       0.90375
    69    C    5  pz     Val( 2p)     1.15831      -0.04014
    70    C    5  pz     Ryd( 3p)     0.00473       1.07562
    71    C    5  dxy    Ryd( 3d)     0.00054       1.92230
    72    C    5  dxz    Ryd( 3d)     0.00031       1.84528
    73    C    5  dyz    Ryd( 3d)     0.00083       2.40953
    74    C    5  dx2y2  Ryd( 3d)     0.00039       2.41976
    75    C    5  dz2    Ryd( 3d)     0.00068       2.38785

    76    C    6  S      Cor( 1S)     1.99910     -10.04224
    77    C    6  S      Val( 2S)     0.95957      -0.16487
    78    C    6  S      Ryd( 3S)     0.00060       1.32085
    79    C    6  S      Ryd( 4S)     0.00003       3.91237
    80    C    6  px     Val( 2p)     0.99948      -0.09932
    81    C    6  px     Ryd( 3p)     0.00073       0.62583
    82    C    6  py     Val( 2p)     1.10039      -0.03507
    83    C    6  py     Ryd( 3p)     0.00467       0.80904
    84    C    6  pz     Val( 2p)     1.15774      -0.04601
    85    C    6  pz     Ryd( 3p)     0.00506       1.03049
    86    C    6  dxy    Ryd( 3d)     0.00052       1.91622
    87    C    6  dxz    Ryd( 3d)     0.00036       1.83478
    88    C    6  dyz    Ryd( 3d)     0.00083       2.38264
    89    C    6  dx2y2  Ryd( 3d)     0.00042       2.37293
    90    C    6  dz2    Ryd( 3d)     0.00069       2.31696

    91    C    7  S      Cor( 1S)     1.99905     -10.03831
    92    C    7  S      Val( 2S)     0.94614      -0.15331
    93    C    7  S      Ryd( 3S)     0.00068       1.34362
    94    C    7  S      Ryd( 4S)     0.00004       3.91524
    95    C    7  px     Val( 2p)     0.99789      -0.10014
    96    C    7  px     Ryd( 3p)     0.00068       0.62814
    97    C    7  py     Val( 2p)     1.10576      -0.03709
    98    C    7  py     Ryd( 3p)     0.00423       0.87102
    99    C    7  pz     Val( 2p)     1.14472      -0.04218
   100    C    7  pz     Ryd( 3p)     0.00478       1.04023
   101    C    7  dxy    Ryd( 3d)     0.00065       1.92835
   102    C    7  dxz    Ryd( 3d)     0.00027       1.83785
   103    C    7  dyz    Ryd( 3d)     0.00086       2.39207
   104    C    7  dx2y2  Ryd( 3d)     0.00040       2.44027
   105    C    7  dz2    Ryd( 3d)     0.00066       2.35055

   106    C    8  S      Cor( 1S)     1.99900     -10.04321
   107    C    8  S      Val( 2S)     0.85912      -0.11155
   108    C    8  S      Ryd( 3S)     0.00043       1.15085
   109    C    8  S      Ryd( 4S)     0.00007       4.15278
   110    C    8  px     Val( 2p)     0.99987      -0.09362
   111    C    8  px     Ryd( 3p)     0.00047       0.72200
   112    C    8  py     Val( 2p)     1.07284      -0.03028
   113    C    8  py     Ryd( 3p)     0.00472       1.29694
   114    C    8  pz     Val( 2p)     1.08808      -0.03815
   115    C    8  pz     Ryd( 3p)     0.00521       1.26176
   116    C    8  dxy    Ryd( 3d)     0.00056       1.92117
   117    C    8  dxz    Ryd( 3d)     0.00049       1.92364
   118    C    8  dyz    Ryd( 3d)     0.00069       2.53473
   119    C    8  dx2y2  Ryd( 3d)     0.00044       2.46233
   120    C    8  dz2    Ryd( 3d)     0.00060       2.47281

   121    C    9  S      Cor( 1S)     1.99902     -10.04084
   122    C    9  S      Val( 2S)     0.86784      -0.11824
   123    C    9  S      Ryd( 3S)     0.00045       1.09964
   124    C    9  S      Ryd( 4S)     0.00007       4.18527
   125    C    9  px     Val( 2p)     1.00004      -0.09312
   126    C    9  px     Ryd( 3p)     0.00037       0.71338
   127    C    9  py     Val( 2p)     1.09280      -0.04243
   128    C    9  py     Ryd( 3p)     0.00501       1.24579
   129    C    9  pz     Val( 2p)     1.08289      -0.03725
   130    C    9  pz     Ryd( 3p)     0.00515       1.20163
   131    C    9  dxy    Ryd( 3d)     0.00059       1.92364
   132    C    9  dxz    Ryd( 3d)     0.00051       1.92389
   133    C    9  dyz    Ryd( 3d)     0.00073       2.53068
   134    C    9  dx2y2  Ryd( 3d)     0.00042       2.40996
   135    C    9  dz2    Ryd( 3d)     0.00060       2.48644

   136    C   10  S      Cor( 1S)     1.99905     -10.03831
   137    C   10  S      Val( 2S)     0.94614      -0.15331
   138    C   10  S      Ryd( 3S)     0.00068       1.34362
   139    C   10  S      Ryd( 4S)     0.00004       3.91524
   140    C   10  px     Val( 2p)     0.99789      -0.10014
   141    C   10  px     Ryd( 3p)     0.00068       0.62814
   142    C   10  py     Val( 2p)     1.10576      -0.03709
   143    C   10  py     Ryd( 3p)     0.00423       0.87102
   144    C   10  pz     Val( 2p)     1.14472      -0.04218
   145    C   10  pz     Ryd( 3p)     0.00478       1.04023
   146    C   10  dxy    Ryd( 3d)     0.00065       1.92835
   147    C   10  dxz    Ryd( 3d)     0.00027       1.83785
   148    C   10  dyz    Ryd( 3d)     0.00086       2.39207
   149    C   10  dx2y2  Ryd( 3d)     0.00040       2.44027
   150    C   10  dz2    Ryd( 3d)     0.00066       2.35055

   151    C   11  S      Cor( 1S)     1.99906     -10.03876
   152    C   11  S      Val( 2S)     0.94824      -0.15540
   153    C   11  S      Ryd( 3S)     0.00063       1.30063
   154    C   11  S      Ryd( 4S)     0.00005       3.93507
   155    C   11  px     Val( 2p)     0.99649      -0.09974
   156    C   11  px     Ryd( 3p)     0.00059       0.62723
   157    C   11  py     Val( 2p)     1.07801      -0.02896
   158    C   11  py     Ryd( 3p)     0.00412       0.80299
   159    C   11  pz     Val( 2p)     1.17280      -0.05069
   160    C   11  pz     Ryd( 3p)     0.00480       1.09674
   161    C   11  dxy    Ryd( 3d)     0.00044       1.92433
   162    C   11  dxz    Ryd( 3d)     0.00041       1.84002
   163    C   11  dyz    Ryd( 3d)     0.00076       2.44204
   164    C   11  dx2y2  Ryd( 3d)     0.00043       2.39181
   165    C   11  dz2    Ryd( 3d)     0.00073       2.32252

   166    H   12  S      Val( 1S)     0.76538       0.09106
   167    H   12  S      Ryd( 2S)     0.00109       0.57642

   168    C   13  S      Cor( 1S)     1.99909     -10.04155
   169    C   13  S      Val( 2S)     0.95987      -0.16450
   170    C   13  S      Ryd( 3S)     0.00055       1.32275
   171    C   13  S      Ryd( 4S)     0.00003       3.90632
   172    C   13  px     Val( 2p)     0.99852      -0.09906
   173    C   13  px     Ryd( 3p)     0.00073       0.62495
   174    C   13  py     Val( 2p)     1.19823      -0.05074
   175    C   13  py     Ryd( 3p)     0.00516       1.13852
   176    C   13  pz     Val( 2p)     1.06273      -0.03102
   177    C   13  pz     Ryd( 3p)     0.00452       0.69279
   178    C   13  dxy    Ryd( 3d)     0.00033       1.80282
   179    C   13  dxz    Ryd( 3d)     0.00055       1.94961
   180    C   13  dyz    Ryd( 3d)     0.00062       2.40227
   181    C   13  dx2y2  Ryd( 3d)     0.00069       2.22135
   182    C   13  dz2    Ryd( 3d)     0.00062       2.45226

   183    C   14  S      Cor( 1S)     1.99910     -10.04224
   184    C   14  S      Val( 2S)     0.95957      -0.16487
   185    C   14  S      Ryd( 3S)     0.00060       1.32085
   186    C   14  S      Ryd( 4S)     0.00003       3.91237
   187    C   14  px     Val( 2p)     0.99948      -0.09932
   188    C   14  px     Ryd( 3p)     0.00073       0.62583
   189    C   14  py     Val( 2p)     1.10039      -0.03507
   190    C   14  py     Ryd( 3p)     0.00467       0.80904
   191    C   14  pz     Val( 2p)     1.15774      -0.04601
   192    C   14  pz     Ryd( 3p)     0.00506       1.03049
   193    C   14  dxy    Ryd( 3d)     0.00052       1.91622
   194    C   14  dxz    Ryd( 3d)     0.00036       1.83478
   195    C   14  dyz    Ryd( 3d)     0.00083       2.38264
   196    C   14  dx2y2  Ryd( 3d)     0.00042       2.37293
   197    C   14  dz2    Ryd( 3d)     0.00069       2.31696

   198    C   15  S      Cor( 1S)     1.99907     -10.03899
   199    C   15  S      Val( 2S)     0.94388      -0.15323
   200    C   15  S      Ryd( 3S)     0.00062       1.25674
   201    C   15  S      Ryd( 4S)     0.00005       3.98011
   202    C   15  px     Val( 2p)     0.99713      -0.10035
   203    C   15  px     Ryd( 3p)     0.00047       0.63297
   204    C   15  py     Val( 2p)     1.09638      -0.03842
   205    C   15  py     Ryd( 3p)     0.00366       0.90375
   206    C   15  pz     Val( 2p)     1.15831      -0.04014
   207    C   15  pz     Ryd( 3p)     0.00473       1.07562
   208    C   15  dxy    Ryd( 3d)     0.00054       1.92230
   209    C   15  dxz    Ryd( 3d)     0.00031       1.84528
   210    C   15  dyz    Ryd( 3d)     0.00083       2.40953
   211    C   15  dx2y2  Ryd( 3d)     0.00039       2.41976
   212    C   15  dz2    Ryd( 3d)     0.00068       2.38785

   213    H   16  S      Val( 1S)     0.76389       0.09117
   214    H   16  S      Ryd( 2S)     0.00104       0.57510

   215    H   17  S      Val( 1S)     0.76178       0.09626
   216    H   17  S      Ryd( 2S)     0.00081       0.56481

   217    H   18  S      Val( 1S)     0.76538       0.09106
   218    H   18  S      Ryd( 2S)     0.00109       0.57642

   219    H   19  S      Val( 1S)     0.76894       0.09365
   220    H   19  S      Ryd( 2S)     0.00097       0.64596

   221    H   20  S      Val( 1S)     0.76233       0.09612
   222    H   20  S      Ryd( 2S)     0.00081       0.56554

   223    H   21  S      Val( 1S)     0.76389       0.09117
   224    H   21  S      Ryd( 2S)     0.00104       0.57510

   225    H   22  S      Val( 1S)     0.76178       0.09626
   226    H   22  S      Ryd( 2S)     0.00081       0.56481

   227    H   23  S      Val( 1S)     0.76233       0.09612
   228    H   23  S      Ryd( 2S)     0.00081       0.56554

   229    H   24  S      Val( 1S)     0.76894       0.09365
   230    H   24  S      Ryd( 2S)     0.00097       0.64596


 Summary of Natural Population Analysis:                  
                                                          
                                       Natural Population 
                Natural  -----------------------------------------------
    Atom  No    Charge         Core      Valence    Rydberg      Total
 -----------------------------------------------------------------------
      C    1   -0.23224      1.99909     4.21935    0.01380     6.23224
      C    2   -0.20756      1.99906     4.19554    0.01296     6.20756
      C    3   -0.05649      1.99902     4.04358    0.01390     6.05649
      C    4   -0.03259      1.99900     4.01992    0.01368     6.03259
      C    5   -0.20707      1.99907     4.19572    0.01228     6.20707
      C    6   -0.23018      1.99910     4.21718    0.01390     6.23018
      C    7   -0.20682      1.99905     4.19451    0.01325     6.20682
      C    8   -0.03259      1.99900     4.01992    0.01368     6.03259
      C    9   -0.05649      1.99902     4.04358    0.01390     6.05649
      C   10   -0.20682      1.99905     4.19451    0.01325     6.20682
      C   11   -0.20756      1.99906     4.19554    0.01296     6.20756
      H   12    0.23353      0.00000     0.76538    0.00109     0.76647
      C   13   -0.23224      1.99909     4.21935    0.01380     6.23224
      C   14   -0.23018      1.99910     4.21718    0.01390     6.23018
      C   15   -0.20707      1.99907     4.19572    0.01228     6.20707
      H   16    0.23506      0.00000     0.76389    0.00104     0.76494
      H   17    0.23741      0.00000     0.76178    0.00081     0.76259
      H   18    0.23353      0.00000     0.76538    0.00109     0.76647
      H   19    0.23009      0.00000     0.76894    0.00097     0.76991
      H   20    0.23686      0.00000     0.76233    0.00081     0.76314
      H   21    0.23506      0.00000     0.76389    0.00104     0.76494
      H   22    0.23741      0.00000     0.76178    0.00081     0.76259
      H   23    0.23686      0.00000     0.76233    0.00081     0.76314
      H   24    0.23009      0.00000     0.76894    0.00097     0.76991
 =======================================================================
   * Total *    0.00000     27.98677    65.81623    0.19699    94.00000

                                 Natural Population      
 --------------------------------------------------------
   Core                      27.98677 ( 99.9528% of  28)
   Valence                   65.81623 ( 99.7216% of  66)
   Natural Minimal Basis     93.80301 ( 99.7904% of  94)
   Natural Rydberg Basis      0.19699 (  0.2096% of  94)
 --------------------------------------------------------

    Atom  No          Natural Electron Configuration
 ----------------------------------------------------------------------------
      C    1      [core]2S( 0.96)2p( 3.26)3p( 0.01)
      C    2      [core]2S( 0.95)2p( 3.25)3p( 0.01)
      C    3      [core]2S( 0.87)2p( 3.18)3p( 0.01)
      C    4      [core]2S( 0.86)2p( 3.16)3p( 0.01)
      C    5      [core]2S( 0.94)2p( 3.25)3p( 0.01)
      C    6      [core]2S( 0.96)2p( 3.26)3p( 0.01)
      C    7      [core]2S( 0.95)2p( 3.25)3p( 0.01)
      C    8      [core]2S( 0.86)2p( 3.16)3p( 0.01)
      C    9      [core]2S( 0.87)2p( 3.18)3p( 0.01)
      C   10      [core]2S( 0.95)2p( 3.25)3p( 0.01)
      C   11      [core]2S( 0.95)2p( 3.25)3p( 0.01)
      H   12            1S( 0.77)
      C   13      [core]2S( 0.96)2p( 3.26)3p( 0.01)
      C   14      [core]2S( 0.96)2p( 3.26)3p( 0.01)
      C   15      [core]2S( 0.94)2p( 3.25)3p( 0.01)
      H   16            1S( 0.76)
      H   17            1S( 0.76)
      H   18            1S( 0.77)
      H   19            1S( 0.77)
      H   20            1S( 0.76)
      H   21            1S( 0.76)
      H   22            1S( 0.76)
      H   23            1S( 0.76)
      H   24            1S( 0.77)


 NAO density matrix:                                                           

          NAO        1       2       3       4       5       6       7       8
      ---------- ------- ------- ------- ------- ------- ------- ------- -------
   1.  C 1 (S)    1.9991  0.0000  0.0000  0.0000  0.0000  0.0000  0.0076 -0.0042
   2.  C 1 (S)    0.0000  0.9599  0.0000  0.0000  0.0000  0.0000  0.1147  0.0114
   3.  C 1 (S)    0.0000  0.0000  0.0006  0.0000  0.0000  0.0000  0.0190 -0.0003
   4.  C 1 (S)    0.0000  0.0000  0.0000  0.0000  0.0000  0.0000 -0.0012  0.0001
   5.  C 1 (px)   0.0000  0.0000  0.0000  0.0000  0.9985 -0.0159  0.0000  0.0000
   6.  C 1 (px)   0.0000  0.0000  0.0000  0.0000 -0.0159  0.0007  0.0000  0.0000
   7.  C 1 (py)   0.0076  0.1147  0.0190 -0.0012  0.0000  0.0000  1.1982 -0.0270
   8.  C 1 (py)  -0.0042  0.0114 -0.0003  0.0001  0.0000  0.0000 -0.0270  0.0052
   9.  C 1 (pz)  -0.0015 -0.0015 -0.0014  0.0002  0.0000  0.0000 -0.0003 -0.0023
  10.  C 1 (pz)  -0.0002  0.0009 -0.0002  0.0000  0.0000  0.0000 -0.0022  0.0000
  11.  C 1 (d1)   0.0000  0.0000  0.0000  0.0000 -0.0169  0.0001  0.0000  0.0000
  12.  C 1 (d2)   0.0000  0.0000  0.0000  0.0000  0.0028 -0.0001  0.0000  0.0000
  13.  C 1 (d3)   0.0000  0.0001  0.0001  0.0000  0.0000  0.0000  0.0020 -0.0001
  14.  C 1 (d4)   0.0031 -0.0197 -0.0002  0.0000  0.0000  0.0000 -0.0154  0.0008
  15.  C 1 (d5)  -0.0010  0.0050 -0.0003  0.0000  0.0000  0.0000 -0.0191  0.0016
  16.  C 2 (S)    0.0000 -0.0042  0.0103  0.0011  0.0000  0.0000 -0.0040  0.0099
  17.  C 2 (S)   -0.0037  0.3208  0.0001 -0.0015  0.0000  0.0000 -0.2464  0.0144
  18.  C 2 (S)    0.0109 -0.0038  0.0002  0.0000  0.0000  0.0000  0.0073  0.0007
  19.  C 2 (S)    0.0008 -0.0026  0.0000  0.0000  0.0000  0.0000 -0.0011 -0.0001
  20.  C 2 (px)   0.0000  0.0000  0.0000  0.0000  0.7184 -0.0080  0.0000  0.0000
  21.  C 2 (px)   0.0000  0.0000  0.0000  0.0000 -0.0035  0.0004  0.0000  0.0000
  22.  C 2 (py)   0.0041  0.2781 -0.0048  0.0009  0.0000  0.0000 -0.0709  0.0449
  23.  C 2 (py)  -0.0126  0.0053  0.0002  0.0000  0.0000  0.0000  0.0170  0.0001
  24.  C 2 (pz)  -0.0068 -0.4151  0.0102 -0.0015  0.0000  0.0000  0.3121  0.0129
  25.  C 2 (pz)   0.0173  0.0122  0.0007  0.0001  0.0000  0.0000  0.0273 -0.0006
  26.  C 2 (d1)   0.0000  0.0000  0.0000  0.0000  0.0086 -0.0004  0.0000  0.0000
  27.  C 2 (d2)   0.0000  0.0000  0.0000  0.0000 -0.0199  0.0003  0.0000  0.0000
  28.  C 2 (d3)   0.0018 -0.0095  0.0000 -0.0001  0.0000  0.0000 -0.0001  0.0001
  29.  C 2 (d4)   0.0007 -0.0042 -0.0002  0.0001  0.0000  0.0000 -0.0035  0.0004
  30.  C 2 (d5)  -0.0018  0.0084 -0.0003  0.0000  0.0000  0.0000 -0.0149  0.0013
  31.  C 3 (S)    0.0001  0.0033  0.0008  0.0002  0.0000  0.0000  0.0005  0.0034
  32.  C 3 (S)    0.0034  0.0282  0.0024 -0.0012  0.0000  0.0000  0.0055 -0.0114
  33.  C 3 (S)    0.0012  0.0008  0.0002  0.0000  0.0000  0.0000  0.0083  0.0004
  34.  C 3 (S)    0.0000 -0.0019  0.0000  0.0000  0.0000  0.0000  0.0017 -0.0001
  35.  C 3 (px)   0.0000  0.0000  0.0000  0.0000  0.0021  0.0145  0.0000  0.0000
  36.  C 3 (px)   0.0000  0.0000  0.0000  0.0000  0.0095  0.0000  0.0000  0.0000
  37.  C 3 (py)   0.0042  0.0376  0.0041 -0.0016  0.0000  0.0000 -0.0190 -0.0271
  38.  C 3 (py)  -0.0016 -0.0071 -0.0005  0.0000  0.0000  0.0000 -0.0047 -0.0008
  39.  C 3 (pz)   0.0027  0.0065  0.0049  0.0020  0.0000  0.0000  0.0146  0.0106
  40.  C 3 (pz)   0.0042 -0.0186  0.0010  0.0000  0.0000  0.0000  0.0303  0.0001
  41.  C 3 (d1)   0.0000  0.0000  0.0000  0.0000  0.0181 -0.0004  0.0000  0.0000
  42.  C 3 (d2)   0.0000  0.0000  0.0000  0.0000  0.0010 -0.0002  0.0000  0.0000
  43.  C 3 (d3)   0.0006 -0.0022  0.0001  0.0000  0.0000  0.0000  0.0070  0.0000
  44.  C 3 (d4)   0.0002 -0.0016 -0.0001  0.0000  0.0000  0.0000  0.0014  0.0004
  45.  C 3 (d5)   0.0001 -0.0004 -0.0002  0.0000  0.0000  0.0000 -0.0005  0.0003
  46.  C 4 (S)    0.0000  0.0034  0.0005  0.0002  0.0000  0.0000 -0.0015  0.0005
  47.  C 4 (S)    0.0036 -0.0026 -0.0003 -0.0009  0.0000  0.0000  0.0161  0.0005
  48.  C 4 (S)    0.0004  0.0007  0.0002  0.0000  0.0000  0.0000  0.0072  0.0004
  49.  C 4 (S)    0.0001 -0.0006  0.0000  0.0000  0.0000  0.0000  0.0017  0.0001
  50.  C 4 (px)   0.0000  0.0000  0.0000  0.0000 -0.2747  0.0188  0.0000  0.0000
  51.  C 4 (px)   0.0000  0.0000  0.0000  0.0000  0.0106  0.0000  0.0000  0.0000
  52.  C 4 (py)   0.0016 -0.0121 -0.0067 -0.0030  0.0000  0.0000  0.0236 -0.0105
  53.  C 4 (py)  -0.0009  0.0007 -0.0003 -0.0001  0.0000  0.0000 -0.0137 -0.0027
  54.  C 4 (pz)   0.0002  0.0003 -0.0008 -0.0003  0.0000  0.0000  0.0019 -0.0009
  55.  C 4 (pz)   0.0002 -0.0009 -0.0001  0.0000  0.0000  0.0000  0.0001 -0.0003
  56.  C 4 (d1)   0.0000  0.0000  0.0000  0.0000  0.0013  0.0004  0.0000  0.0000
  57.  C 4 (d2)   0.0000  0.0000  0.0000  0.0000 -0.0002  0.0000  0.0000  0.0000
  58.  C 4 (d3)   0.0000  0.0002  0.0000  0.0000  0.0000  0.0000  0.0001  0.0000
  59.  C 4 (d4)   0.0000 -0.0001 -0.0001  0.0000  0.0000  0.0000 -0.0003  0.0005
  60.  C 4 (d5)   0.0001  0.0003 -0.0001  0.0000  0.0000  0.0000  0.0006  0.0006
  61.  C 5 (S)    0.0000  0.0035  0.0009  0.0003  0.0000  0.0000  0.0006  0.0037
  62.  C 5 (S)    0.0032  0.0346  0.0024 -0.0013  0.0000  0.0000  0.0025 -0.0112
  63.  C 5 (S)    0.0009  0.0021  0.0002  0.0000  0.0000  0.0000  0.0051  0.0009
  64.  C 5 (S)    0.0001 -0.0014  0.0000  0.0000  0.0000  0.0000  0.0023  0.0000
  65.  C 5 (px)   0.0000  0.0000  0.0000  0.0000 -0.0005  0.0150  0.0000  0.0000
  66.  C 5 (px)   0.0000  0.0000  0.0000  0.0000  0.0129 -0.0002  0.0000  0.0000
  67.  C 5 (py)   0.0036  0.0282  0.0002 -0.0021  0.0000  0.0000 -0.0149 -0.0281
  68.  C 5 (py)  -0.0008 -0.0081 -0.0003 -0.0001  0.0000  0.0000 -0.0019 -0.0013
  69.  C 5 (pz)  -0.0027 -0.0207 -0.0066 -0.0020  0.0000  0.0000 -0.0125 -0.0127
  70.  C 5 (pz)  -0.0038  0.0177 -0.0007  0.0001  0.0000  0.0000 -0.0268  0.0007
  71.  C 5 (d1)   0.0000  0.0000  0.0000  0.0000  0.0143 -0.0002  0.0000  0.0000
  72.  C 5 (d2)   0.0000  0.0000  0.0000  0.0000 -0.0023  0.0003  0.0000  0.0000
  73.  C 5 (d3)  -0.0005  0.0029  0.0000  0.0000  0.0000  0.0000 -0.0075  0.0000
  74.  C 5 (d4)   0.0002 -0.0016 -0.0001  0.0000  0.0000  0.0000  0.0012  0.0003
  75.  C 5 (d5)  -0.0001  0.0005 -0.0001  0.0000  0.0000  0.0000 -0.0020  0.0004
  76.  C 6 (S)    0.0000 -0.0050  0.0099  0.0012  0.0000  0.0000 -0.0032  0.0087
  77.  C 6 (S)   -0.0050  0.3077 -0.0015 -0.0023  0.0000  0.0000 -0.2192  0.0137
  78.  C 6 (S)    0.0100 -0.0019  0.0002  0.0000  0.0000  0.0000  0.0050  0.0010
  79.  C 6 (S)    0.0012 -0.0023  0.0000  0.0000  0.0000  0.0000 -0.0012  0.0000
  80.  C 6 (px)   0.0000  0.0000  0.0000  0.0000  0.5996 -0.0021  0.0000  0.0000
  81.  C 6 (px)   0.0000  0.0000  0.0000  0.0000 -0.0017  0.0001  0.0000  0.0000
  82.  C 6 (py)   0.0023  0.2578 -0.0018  0.0009  0.0000  0.0000 -0.0525  0.0476
  83.  C 6 (py)  -0.0113  0.0058  0.0005  0.0000  0.0000  0.0000  0.0204  0.0005
  84.  C 6 (pz)   0.0053  0.4236 -0.0067  0.0019  0.0000  0.0000 -0.2924 -0.0080
  85.  C 6 (pz)  -0.0175 -0.0123 -0.0008  0.0000  0.0000  0.0000 -0.0257  0.0010
  86.  C 6 (d1)   0.0000  0.0000  0.0000  0.0000  0.0072 -0.0005  0.0000  0.0000
  87.  C 6 (d2)   0.0000  0.0000  0.0000  0.0000  0.0188 -0.0003  0.0000  0.0000
  88.  C 6 (d3)  -0.0017  0.0094  0.0001  0.0001  0.0000  0.0000  0.0021 -0.0001
  89.  C 6 (d4)   0.0007 -0.0041 -0.0001  0.0001  0.0000  0.0000 -0.0031  0.0004
  90.  C 6 (d5)  -0.0020  0.0092 -0.0003  0.0000  0.0000  0.0000 -0.0145  0.0012
  91.  C 7 (S)    0.0001 -0.0018  0.0003  0.0000  0.0000  0.0000  0.0006 -0.0003
  92.  C 7 (S)   -0.0016  0.0217 -0.0006 -0.0002  0.0000  0.0000 -0.0205  0.0034
  93.  C 7 (S)    0.0002  0.0002 -0.0001  0.0000  0.0000  0.0000 -0.0005  0.0000
  94.  C 7 (S)   -0.0001  0.0005  0.0000  0.0000  0.0000  0.0000 -0.0012  0.0001
  95.  C 7 (px)   0.0000  0.0000  0.0000  0.0000 -0.1225  0.0096  0.0000  0.0000
  96.  C 7 (px)   0.0000  0.0000  0.0000  0.0000  0.0074 -0.0001  0.0000  0.0000
  97.  C 7 (py)  -0.0005  0.0214 -0.0007  0.0009  0.0000  0.0000 -0.0082  0.0052
  98.  C 7 (py)   0.0007 -0.0053  0.0005  0.0000  0.0000  0.0000  0.0074 -0.0007
  99.  C 7 (pz)   0.0013 -0.0237 -0.0032 -0.0012  0.0000  0.0000  0.0203 -0.0084
 100.  C 7 (pz)   0.0005 -0.0009  0.0002 -0.0001  0.0000  0.0000  0.0018 -0.0007
 101.  C 7 (d1)   0.0000  0.0000  0.0000  0.0000  0.0012  0.0001  0.0000  0.0000
 102.  C 7 (d2)   0.0000  0.0000  0.0000  0.0000  0.0034 -0.0003  0.0000  0.0000
 103.  C 7 (d3)  -0.0001  0.0000 -0.0001  0.0000  0.0000  0.0000  0.0000  0.0001
 104.  C 7 (d4)  -0.0001  0.0004  0.0000  0.0000  0.0000  0.0000  0.0000  0.0001
 105.  C 7 (d5)  -0.0004  0.0020 -0.0001  0.0000  0.0000  0.0000 -0.0028  0.0004
 106.  C 8 (S)    0.0000 -0.0008 -0.0002 -0.0002  0.0000  0.0000  0.0008  0.0000
 107.  C 8 (S)    0.0000  0.0039  0.0018  0.0006  0.0000  0.0000 -0.0001 -0.0003
 108.  C 8 (S)    0.0005 -0.0021  0.0000  0.0000  0.0000  0.0000  0.0041 -0.0004
 109.  C 8 (S)    0.0000  0.0000  0.0000  0.0000  0.0000  0.0000 -0.0003 -0.0001
 110.  C 8 (px)   0.0000  0.0000  0.0000  0.0000 -0.0008 -0.0058  0.0000  0.0000
 111.  C 8 (px)   0.0000  0.0000  0.0000  0.0000 -0.0008  0.0003  0.0000  0.0000
 112.  C 8 (py)   0.0000  0.0116  0.0048  0.0012  0.0000  0.0000 -0.0073  0.0018
 113.  C 8 (py)  -0.0006  0.0018 -0.0002  0.0000  0.0000  0.0000 -0.0033  0.0005
 114.  C 8 (pz)   0.0000 -0.0001 -0.0005 -0.0002  0.0000  0.0000  0.0001 -0.0002
 115.  C 8 (pz)   0.0000 -0.0001 -0.0001  0.0000  0.0000  0.0000 -0.0001 -0.0001
 116.  C 8 (d1)   0.0000  0.0000  0.0000  0.0000 -0.0100  0.0005  0.0000  0.0000
 117.  C 8 (d2)   0.0000  0.0000  0.0000  0.0000  0.0004  0.0000  0.0000  0.0000
 118.  C 8 (d3)   0.0000 -0.0001  0.0000  0.0000  0.0000  0.0000  0.0001  0.0000
 119.  C 8 (d4)   0.0000 -0.0005 -0.0001  0.0000  0.0000  0.0000  0.0011  0.0001
 120.  C 8 (d5)   0.0000 -0.0003 -0.0001  0.0000  0.0000  0.0000  0.0007  0.0000
 121.  C 9 (S)    0.0000  0.0002  0.0001  0.0000  0.0000  0.0000 -0.0001  0.0002
 122.  C 9 (S)    0.0002 -0.0013 -0.0006 -0.0001  0.0000  0.0000  0.0024 -0.0011
 123.  C 9 (S)    0.0002 -0.0007  0.0000  0.0000  0.0000  0.0000  0.0013 -0.0003
 124.  C 9 (S)    0.0000  0.0001  0.0000  0.0000  0.0000  0.0000 -0.0002  0.0000
 125.  C 9 (px)   0.0000  0.0000  0.0000  0.0000  0.1166 -0.0098  0.0000  0.0000
 126.  C 9 (px)   0.0000  0.0000  0.0000  0.0000 -0.0058  0.0003  0.0000  0.0000
 127.  C 9 (py)   0.0001 -0.0016 -0.0007 -0.0002  0.0000  0.0000  0.0007 -0.0014
 128.  C 9 (py)  -0.0002  0.0012  0.0001  0.0000  0.0000  0.0000 -0.0018  0.0003
 129.  C 9 (pz)   0.0001  0.0014  0.0005  0.0002  0.0000  0.0000  0.0002 -0.0004
 130.  C 9 (pz)   0.0000  0.0000  0.0001  0.0001  0.0000  0.0000  0.0002  0.0001
 131.  C 9 (d1)   0.0000  0.0000  0.0000  0.0000 -0.0007  0.0000  0.0000  0.0000
 132.  C 9 (d2)   0.0000  0.0000  0.0000  0.0000 -0.0007  0.0001  0.0000  0.0000
 133.  C 9 (d3)   0.0000 -0.0002  0.0000  0.0000  0.0000  0.0000 -0.0001 -0.0001
 134.  C 9 (d4)   0.0000 -0.0001  0.0000  0.0000  0.0000  0.0000  0.0002  0.0000
 135.  C 9 (d5)  -0.0001  0.0002 -0.0001  0.0000  0.0000  0.0000 -0.0002  0.0000
 136.  C10 (S)    0.0000  0.0009  0.0000  0.0001  0.0000  0.0000 -0.0004  0.0003
 137.  C10 (S)    0.0008  0.0021  0.0004 -0.0003  0.0000  0.0000  0.0020 -0.0015
 138.  C10 (S)    0.0000  0.0004  0.0000  0.0000  0.0000  0.0000  0.0000  0.0000
 139.  C10 (S)    0.0001 -0.0003  0.0000  0.0000  0.0000  0.0000  0.0005 -0.0001
 140.  C10 (px)   0.0000  0.0000  0.0000  0.0000  0.0006 -0.0010  0.0000  0.0000
 141.  C10 (px)   0.0000  0.0000  0.0000  0.0000 -0.0006  0.0001  0.0000  0.0000
 142.  C10 (py)   0.0009 -0.0013  0.0004 -0.0010  0.0000  0.0000  0.0008 -0.0027
 143.  C10 (py)  -0.0002 -0.0001 -0.0001  0.0000  0.0000  0.0000 -0.0010  0.0001
 144.  C10 (pz)   0.0002  0.0019  0.0006  0.0002  0.0000  0.0000  0.0044  0.0008
 145.  C10 (pz)   0.0003 -0.0020 -0.0001 -0.0001  0.0000  0.0000  0.0018 -0.0009
 146.  C10 (d1)   0.0000  0.0000  0.0000  0.0000 -0.0047  0.0003  0.0000  0.0000
 147.  C10 (d2)   0.0000  0.0000  0.0000  0.0000 -0.0014  0.0001  0.0000  0.0000
 148.  C10 (d3)   0.0001 -0.0004  0.0000  0.0000  0.0000  0.0000  0.0008 -0.0003
 149.  C10 (d4)  -0.0001  0.0001  0.0000  0.0000  0.0000  0.0000 -0.0006  0.0000
 150.  C10 (d5)   0.0000  0.0002  0.0000  0.0000  0.0000  0.0000 -0.0003  0.0001
 151.  C11 (S)    0.0000 -0.0001  0.0000  0.0000  0.0000  0.0000  0.0000  0.0000
 152.  C11 (S)    0.0001  0.0002  0.0002 -0.0001  0.0000  0.0000  0.0000 -0.0004
 153.  C11 (S)    0.0001 -0.0004  0.0000  0.0000  0.0000  0.0000  0.0006 -0.0001
 154.  C11 (S)    0.0000  0.0000  0.0000  0.0000  0.0000  0.0000  0.0001  0.0000
 155.  C11 (px)   0.0000  0.0000  0.0000  0.0000  0.0020  0.0007  0.0000  0.0000
 156.  C11 (px)   0.0000  0.0000  0.0000  0.0000  0.0003 -0.0001  0.0000  0.0000
 157.  C11 (py)   0.0000  0.0020  0.0006  0.0003  0.0000  0.0000 -0.0017  0.0003
 158.  C11 (py)   0.0000  0.0001  0.0000  0.0000  0.0000  0.0000 -0.0002  0.0001
 159.  C11 (pz)   0.0000 -0.0008 -0.0001 -0.0001  0.0000  0.0000  0.0002  0.0000
 160.  C11 (pz)   0.0000  0.0000  0.0001  0.0000  0.0000  0.0000  0.0004  0.0000
 161.  C11 (d1)   0.0000  0.0000  0.0000  0.0000  0.0044 -0.0003  0.0000  0.0000
 162.  C11 (d2)   0.0000  0.0000  0.0000  0.0000  0.0018 -0.0001  0.0000  0.0000
 163.  C11 (d3)   0.0000  0.0002  0.0000  0.0000  0.0000  0.0000 -0.0001  0.0000
 164.  C11 (d4)   0.0000 -0.0001  0.0000  0.0000  0.0000  0.0000  0.0000  0.0000
 165.  C11 (d5)   0.0000  0.0000  0.0000  0.0000  0.0000  0.0000 -0.0001  0.0000
 166.  H12 (S)    0.0000 -0.0011 -0.0003 -0.0002  0.0000  0.0000 -0.0001  0.0000
 167.  H12 (S)    0.0000  0.0001  0.0001  0.0000  0.0000  0.0000  0.0004 -0.0001
 168.  C13 (S)    0.0000  0.0000  0.0000  0.0000  0.0000  0.0000  0.0000  0.0001
 169.  C13 (S)    0.0000  0.0000  0.0000  0.0000  0.0000  0.0000  0.0003 -0.0004
 170.  C13 (S)    0.0000  0.0000  0.0000  0.0000  0.0000  0.0000  0.0002  0.0000
 171.  C13 (S)    0.0000  0.0000  0.0000  0.0000  0.0000  0.0000  0.0001  0.0000
 172.  C13 (px)   0.0000  0.0000  0.0000  0.0000 -0.0964  0.0080  0.0000  0.0000
 173.  C13 (px)   0.0000  0.0000  0.0000  0.0000  0.0080 -0.0005  0.0000  0.0000
 174.  C13 (py)   0.0000 -0.0003 -0.0002 -0.0001  0.0000  0.0000  0.0000 -0.0005
 175.  C13 (py)  -0.0001  0.0004  0.0000  0.0000  0.0000  0.0000 -0.0005  0.0001
 176.  C13 (pz)  -0.0001  0.0013  0.0001  0.0000  0.0000  0.0000 -0.0011  0.0002
 177.  C13 (pz)   0.0000  0.0001  0.0000  0.0000  0.0000  0.0000  0.0000  0.0000
 178.  C13 (d1)   0.0000  0.0000  0.0000  0.0000 -0.0001  0.0000  0.0000  0.0000
 179.  C13 (d2)   0.0000  0.0000  0.0000  0.0000 -0.0001  0.0000  0.0000  0.0000
 180.  C13 (d3)   0.0000  0.0000  0.0000  0.0000  0.0000  0.0000  0.0000  0.0000
 181.  C13 (d4)   0.0000 -0.0001  0.0000  0.0000  0.0000  0.0000  0.0001  0.0000
 182.  C13 (d5)   0.0000  0.0000  0.0000  0.0000  0.0000  0.0000  0.0001  0.0000
 183.  C14 (S)    0.0000 -0.0002  0.0000  0.0000  0.0000  0.0000  0.0001  0.0000
 184.  C14 (S)   -0.0001  0.0015  0.0003  0.0002  0.0000  0.0000 -0.0017  0.0000
 185.  C14 (S)    0.0001 -0.0003  0.0000  0.0000  0.0000  0.0000  0.0003 -0.0001
 186.  C14 (S)    0.0000  0.0000  0.0000  0.0000  0.0000  0.0000  0.0002  0.0000
 187.  C14 (px)   0.0000  0.0000  0.0000  0.0000 -0.0026  0.0020  0.0000  0.0000
 188.  C14 (px)   0.0000  0.0000  0.0000  0.0000 -0.0002 -0.0001  0.0000  0.0000
 189.  C14 (py)  -0.0001  0.0034  0.0008  0.0004  0.0000  0.0000 -0.0023  0.0004
 190.  C14 (py)  -0.0001  0.0003  0.0000  0.0000  0.0000  0.0000 -0.0008  0.0001
 191.  C14 (pz)   0.0000 -0.0002 -0.0001  0.0001  0.0000  0.0000 -0.0003 -0.0002
 192.  C14 (pz)   0.0000  0.0000 -0.0001  0.0000  0.0000  0.0000  0.0002  0.0000
 193.  C14 (d1)   0.0000  0.0000  0.0000  0.0000  0.0037 -0.0003  0.0000  0.0000
 194.  C14 (d2)   0.0000  0.0000  0.0000  0.0000 -0.0018  0.0001  0.0000  0.0000
 195.  C14 (d3)   0.0000  0.0000  0.0000  0.0000  0.0000  0.0000 -0.0001  0.0000
 196.  C14 (d4)   0.0000 -0.0001  0.0000  0.0000  0.0000  0.0000  0.0000  0.0000
 197.  C14 (d5)   0.0000  0.0000  0.0000  0.0000  0.0000  0.0000  0.0000  0.0000
 198.  C15 (S)    0.0000  0.0004  0.0001  0.0000  0.0000  0.0000 -0.0002  0.0001
 199.  C15 (S)    0.0004 -0.0027 -0.0004  0.0000  0.0000  0.0000  0.0035 -0.0010
 200.  C15 (S)    0.0001 -0.0007  0.0000  0.0000  0.0000  0.0000  0.0010 -0.0002
 201.  C15 (S)    0.0000 -0.0002  0.0000  0.0000  0.0000  0.0000  0.0001 -0.0001
 202.  C15 (px)   0.0000  0.0000  0.0000  0.0000  0.0914 -0.0070  0.0000  0.0000
 203.  C15 (px)   0.0000  0.0000  0.0000  0.0000 -0.0053  0.0002  0.0000  0.0000
 204.  C15 (py)   0.0000 -0.0033 -0.0010 -0.0003  0.0000  0.0000  0.0000 -0.0011
 205.  C15 (py)  -0.0002  0.0015  0.0001  0.0001  0.0000  0.0000 -0.0010  0.0005
 206.  C15 (pz)  -0.0002  0.0034  0.0002  0.0002  0.0000  0.0000 -0.0036  0.0012
 207.  C15 (pz)   0.0001 -0.0006 -0.0002 -0.0001  0.0000  0.0000  0.0007 -0.0001
 208.  C15 (d1)   0.0000  0.0000  0.0000  0.0000 -0.0007 -0.0001  0.0000  0.0000
 209.  C15 (d2)   0.0000  0.0000  0.0000  0.0000  0.0019 -0.0002  0.0000  0.0000
 210.  C15 (d3)   0.0000  0.0001  0.0000  0.0000  0.0000  0.0000  0.0002  0.0000
 211.  C15 (d4)   0.0000 -0.0001  0.0000  0.0000  0.0000  0.0000  0.0002  0.0000
 212.  C15 (d5)   0.0000 -0.0001 -0.0001  0.0000  0.0000  0.0000  0.0001 -0.0001
 213.  H16 (S)   -0.0005  0.0056 -0.0027 -0.0005  0.0000  0.0000 -0.0117  0.0005
 214.  H16 (S)    0.0002 -0.0015  0.0002  0.0000  0.0000  0.0000  0.0041 -0.0004
 215.  H17 (S)   -0.0099  0.5288  0.0120 -0.0010  0.0000  0.0000  0.7965 -0.0190
 216.  H17 (S)   -0.0128  0.0115 -0.0002  0.0000  0.0000  0.0000 -0.0042  0.0017
 217.  H18 (S)    0.0060  0.0248  0.0025 -0.0014  0.0000  0.0000 -0.0362  0.0283
 218.  H18 (S)   -0.0016  0.0025  0.0002  0.0000  0.0000  0.0000  0.0068 -0.0001
 219.  H19 (S)   -0.0027  0.0495  0.0034  0.0010  0.0000  0.0000 -0.0372  0.0103
 220.  H19 (S)    0.0004 -0.0032  0.0003  0.0000  0.0000  0.0000  0.0085 -0.0006
 221.  H20 (S)    0.0055  0.0189  0.0004 -0.0019  0.0000  0.0000 -0.0313  0.0266
 222.  H20 (S)   -0.0015  0.0023  0.0002  0.0000  0.0000  0.0000  0.0077 -0.0002
 223.  H21 (S)   -0.0006  0.0070  0.0003  0.0004  0.0000  0.0000 -0.0074  0.0023
 224.  H21 (S)    0.0001 -0.0006  0.0000  0.0000  0.0000  0.0000  0.0015 -0.0004
 225.  H22 (S)   -0.0001  0.0011  0.0003  0.0001  0.0000  0.0000 -0.0011  0.0004
 226.  H22 (S)    0.0000 -0.0001  0.0000  0.0000  0.0000  0.0000  0.0003  0.0000
 227.  H23 (S)    0.0000 -0.0001 -0.0002 -0.0001  0.0000  0.0000 -0.0007  0.0003
 228.  H23 (S)    0.0000  0.0001  0.0000  0.0000  0.0000  0.0000  0.0001  0.0000
 229.  H24 (S)   -0.0002 -0.0017 -0.0009 -0.0002  0.0000  0.0000 -0.0035 -0.0002
 230.  H24 (S)    0.0001  0.0000  0.0001  0.0000  0.0000  0.0000  0.0022  0.0001

          NAO        9      10      11      12      13      14      15      16
      ---------- ------- ------- ------- ------- ------- ------- ------- -------
   1.  C 1 (S)   -0.0015 -0.0002  0.0000  0.0000  0.0000  0.0031 -0.0010  0.0000
   2.  C 1 (S)   -0.0015  0.0009  0.0000  0.0000  0.0001 -0.0197  0.0050 -0.0042
   3.  C 1 (S)   -0.0014 -0.0002  0.0000  0.0000  0.0001 -0.0002 -0.0003  0.0103
   4.  C 1 (S)    0.0002  0.0000  0.0000  0.0000  0.0000  0.0000  0.0000  0.0011
   5.  C 1 (px)   0.0000  0.0000 -0.0169  0.0028  0.0000  0.0000  0.0000  0.0000
   6.  C 1 (px)   0.0000  0.0000  0.0001 -0.0001  0.0000  0.0000  0.0000  0.0000
   7.  C 1 (py)  -0.0003 -0.0022  0.0000  0.0000  0.0020 -0.0154 -0.0191 -0.0040
   8.  C 1 (py)  -0.0023  0.0000  0.0000  0.0000 -0.0001  0.0008  0.0016  0.0099
   9.  C 1 (pz)   1.0627  0.0429  0.0000  0.0000 -0.0228 -0.0009 -0.0016  0.0060
  10.  C 1 (pz)   0.0429  0.0045  0.0000  0.0000 -0.0006  0.0000  0.0000 -0.0190
  11.  C 1 (d1)   0.0000  0.0000  0.0003  0.0000  0.0000  0.0000  0.0000  0.0000
  12.  C 1 (d2)   0.0000  0.0000  0.0000  0.0005  0.0000  0.0000  0.0000  0.0000
  13.  C 1 (d3)  -0.0228 -0.0006  0.0000  0.0000  0.0006  0.0000  0.0000  0.0020
  14.  C 1 (d4)  -0.0009  0.0000  0.0000  0.0000  0.0000  0.0007  0.0003  0.0009
  15.  C 1 (d5)  -0.0016  0.0000  0.0000  0.0000  0.0000  0.0003  0.0006 -0.0015
  16.  C 2 (S)    0.0060 -0.0190  0.0000  0.0000  0.0020  0.0009 -0.0015  1.9991
  17.  C 2 (S)    0.4385 -0.0019  0.0000  0.0000 -0.0098 -0.0044  0.0084  0.0000
  18.  C 2 (S)   -0.0095 -0.0004  0.0000  0.0000  0.0003  0.0002  0.0001  0.0000
  19.  C 2 (S)    0.0006 -0.0001  0.0000  0.0000 -0.0001  0.0001  0.0000  0.0000
  20.  C 2 (px)   0.0000  0.0000 -0.0134  0.0168  0.0000  0.0000  0.0000  0.0000
  21.  C 2 (px)   0.0000  0.0000  0.0000 -0.0004  0.0000  0.0000  0.0000  0.0000
  22.  C 2 (py)   0.3393  0.0438  0.0000  0.0000 -0.0017  0.0022  0.0123  0.0031
  23.  C 2 (py)   0.0572  0.0028  0.0000  0.0000 -0.0012 -0.0003 -0.0002 -0.0038
  24.  C 2 (pz)  -0.4014 -0.0204  0.0000  0.0000  0.0138  0.0082  0.0001  0.0065
  25.  C 2 (pz)   0.0105 -0.0004  0.0000  0.0000 -0.0005 -0.0005 -0.0004 -0.0022
  26.  C 2 (d1)   0.0000  0.0000 -0.0001 -0.0002  0.0000  0.0000  0.0000  0.0000
  27.  C 2 (d2)   0.0000  0.0000  0.0003 -0.0001  0.0000  0.0000  0.0000  0.0000
  28.  C 2 (d3)  -0.0110 -0.0005  0.0000  0.0000  0.0004  0.0002  0.0000 -0.0004
  29.  C 2 (d4)  -0.0046  0.0004  0.0000  0.0000  0.0002  0.0002  0.0001  0.0026
  30.  C 2 (d5)   0.0035  0.0005  0.0000  0.0000  0.0000  0.0001  0.0005 -0.0018
  31.  C 3 (S)    0.0046  0.0017  0.0000  0.0000  0.0003  0.0004  0.0003  0.0000
  32.  C 3 (S)    0.0281 -0.0191  0.0000  0.0000 -0.0019 -0.0027 -0.0016 -0.0056
  33.  C 3 (S)    0.0017  0.0000  0.0000  0.0000  0.0000  0.0000  0.0000  0.0105
  34.  C 3 (S)   -0.0010  0.0000  0.0000  0.0000  0.0000  0.0000 -0.0001 -0.0013
  35.  C 3 (px)   0.0000  0.0000 -0.0044  0.0129  0.0000  0.0000  0.0000  0.0000
  36.  C 3 (px)   0.0000  0.0000 -0.0002 -0.0001  0.0000  0.0000  0.0000  0.0000
  37.  C 3 (py)   0.0421 -0.0291  0.0000  0.0000 -0.0059 -0.0067 -0.0058  0.0062
  38.  C 3 (py)  -0.0113 -0.0001  0.0000  0.0000  0.0001  0.0001 -0.0001 -0.0219
  39.  C 3 (pz)   0.0020 -0.0018  0.0000  0.0000  0.0000  0.0018  0.0025 -0.0003
  40.  C 3 (pz)  -0.0260 -0.0019  0.0000  0.0000  0.0006  0.0002 -0.0003  0.0004
  41.  C 3 (d1)   0.0000  0.0000 -0.0003  0.0003  0.0000  0.0000  0.0000  0.0000
  42.  C 3 (d2)   0.0000  0.0000  0.0001  0.0000  0.0000  0.0000  0.0000  0.0000
  43.  C 3 (d3)  -0.0066 -0.0003  0.0000  0.0000  0.0002  0.0000 -0.0001  0.0000
  44.  C 3 (d4)  -0.0038  0.0004  0.0000  0.0000  0.0001  0.0001  0.0000  0.0024
  45.  C 3 (d5)  -0.0019  0.0002  0.0000  0.0000  0.0001  0.0001  0.0001  0.0013
  46.  C 4 (S)   -0.0002 -0.0001  0.0000  0.0000  0.0000  0.0000  0.0002  0.0000
  47.  C 4 (S)    0.0016  0.0001  0.0000  0.0000 -0.0001 -0.0004 -0.0002  0.0034
  48.  C 4 (S)    0.0012  0.0000  0.0000  0.0000  0.0000  0.0000  0.0000  0.0009
  49.  C 4 (S)    0.0007  0.0001  0.0000  0.0000  0.0000  0.0000  0.0000  0.0000
  50.  C 4 (px)   0.0000  0.0000 -0.0007  0.0000  0.0000  0.0000  0.0000  0.0000
  51.  C 4 (px)   0.0000  0.0000 -0.0002  0.0000  0.0000  0.0000  0.0000  0.0000
  52.  C 4 (py)   0.0024 -0.0002  0.0000  0.0000  0.0000 -0.0010 -0.0014 -0.0002
  53.  C 4 (py)  -0.0014  0.0000  0.0000  0.0000  0.0001 -0.0005 -0.0005 -0.0035
  54.  C 4 (pz)  -0.0055 -0.0005  0.0000  0.0000  0.0030 -0.0001  0.0002  0.0049
  55.  C 4 (pz)   0.0010  0.0019  0.0000  0.0000  0.0003  0.0000  0.0000  0.0002
  56.  C 4 (d1)   0.0000  0.0000 -0.0001 -0.0001  0.0000  0.0000  0.0000  0.0000
  57.  C 4 (d2)   0.0000  0.0000  0.0000  0.0005  0.0000  0.0000  0.0000  0.0000
  58.  C 4 (d3)  -0.0035 -0.0005  0.0000  0.0000  0.0000  0.0000  0.0000 -0.0003
  59.  C 4 (d4)  -0.0003  0.0000  0.0000  0.0000  0.0000  0.0001  0.0001  0.0003
  60.  C 4 (d5)   0.0003  0.0000  0.0000  0.0000  0.0000  0.0001  0.0002  0.0002
  61.  C 5 (S)   -0.0047 -0.0012  0.0000  0.0000 -0.0004  0.0004  0.0003  0.0000
  62.  C 5 (S)   -0.0363  0.0172  0.0000  0.0000  0.0022 -0.0024 -0.0011  0.0036
  63.  C 5 (S)   -0.0042 -0.0003  0.0000  0.0000  0.0001  0.0001  0.0002  0.0006
  64.  C 5 (S)    0.0008  0.0000  0.0000  0.0000  0.0000  0.0000  0.0000  0.0002
  65.  C 5 (px)   0.0000  0.0000 -0.0046 -0.0171  0.0000  0.0000  0.0000  0.0000
  66.  C 5 (px)   0.0000  0.0000 -0.0002  0.0004  0.0000  0.0000  0.0000  0.0000
  67.  C 5 (py)  -0.0352  0.0252  0.0000  0.0000  0.0068 -0.0068 -0.0047  0.0005
  68.  C 5 (py)   0.0136  0.0010  0.0000  0.0000 -0.0001  0.0000 -0.0002 -0.0004
  69.  C 5 (pz)   0.0103 -0.0005  0.0000  0.0000  0.0008 -0.0026 -0.0032  0.0014
  70.  C 5 (pz)  -0.0288 -0.0022  0.0000  0.0000  0.0005  0.0000  0.0005 -0.0005
  71.  C 5 (d1)   0.0000  0.0000 -0.0002 -0.0004  0.0000  0.0000  0.0000  0.0000
  72.  C 5 (d2)   0.0000  0.0000 -0.0001  0.0000  0.0000  0.0000  0.0000  0.0000
  73.  C 5 (d3)  -0.0076 -0.0002  0.0000  0.0000  0.0002  0.0000  0.0001 -0.0001
  74.  C 5 (d4)   0.0035 -0.0003  0.0000  0.0000 -0.0001  0.0001  0.0000  0.0000
  75.  C 5 (d5)   0.0005 -0.0002  0.0000  0.0000 -0.0001  0.0001  0.0001 -0.0001
  76.  C 6 (S)   -0.0047  0.0188  0.0000  0.0000 -0.0020  0.0009 -0.0017  0.0000
  77.  C 6 (S)   -0.4458  0.0017  0.0000  0.0000  0.0094 -0.0041  0.0093  0.0034
  78.  C 6 (S)    0.0050  0.0000  0.0000  0.0000 -0.0002  0.0002  0.0002  0.0010
  79.  C 6 (S)   -0.0018  0.0000  0.0000  0.0000  0.0001  0.0001  0.0000  0.0003
  80.  C 6 (px)   0.0000  0.0000 -0.0121 -0.0160  0.0000  0.0000  0.0000  0.0000
  81.  C 6 (px)   0.0000  0.0000  0.0000  0.0005  0.0000  0.0000  0.0000  0.0000
  82.  C 6 (py)  -0.3227 -0.0386  0.0000  0.0000 -0.0003  0.0031  0.0122  0.0042
  83.  C 6 (py)  -0.0559 -0.0030  0.0000  0.0000  0.0012 -0.0001 -0.0001  0.0030
  84.  C 6 (pz)  -0.4446 -0.0204  0.0000  0.0000  0.0139 -0.0073  0.0021  0.0019
  85.  C 6 (pz)   0.0072 -0.0008  0.0000  0.0000 -0.0006  0.0006  0.0004 -0.0026
[...]
    19. BD (   1) C   8 - C   9          1.96754    -0.66198  220(g),218(g),219(g),208(g)
                                                    207(v),230(v),222(v),78(v)
                                                    221(v),180(v),148(v),149(v)
                                                    138(v)
    20. BD (   2) C   8 - C   9          1.56310    -0.22842  228(v),224(v),205(v),214(v)
                                                    140(v),150(v),181(v)
    21. BD (   1) C   8 - C  15          1.97505    -0.67271  216(g),208(g),227(g),219(v)
                                                    229(v),204(v),170(v),78(v)
                                                    230(g),129(v),128(v),169(v)
                                                    79(v)
    22. BD (   1) C   9 - C  10          1.97484    -0.65938  216(g),215(v),213(g),220(g)
                                                    218(v),109(v),223(v),119(v)
                                                    148(v),221(g)
    23. BD (   1) C   9 - C  11          1.97542    -0.67275  216(g),208(v),219(g),223(g)
                                                    226(v),213(v),160(v),119(v)
                                                    138(v),222(g),159(v)
    24. BD (   1) C  10 - H  21          1.98104    -0.51420  206(v),216(v),213(g),108(v)
                                                    129(v),219(g)
    25. BD (   1) C  11 - H  12          1.98170    -0.51382  216(v),225(v),128(v),159(v)
                                                    223(g),220(g)
    26. BD (   1) C  11 - C  13          1.98102    -0.69415  219(v),220(g),225(g),229(v)
                                                    129(v),222(g),170(v),226(g)
                                                    128(v),169(v)
    27. BD (   2) C  11 - C  13          1.71687    -0.24500  217(v),228(v),133(v),171(v)
    28. BD (   1) C  13 - C  14          1.98013    -0.67619  222(v),223(g),227(g),230(v)
                                                    149(v),180(v),226(g),229(g)
                                                    179(v),148(v)
    29. BD (   1) C  13 - H  22          1.98277    -0.51604  220(v),227(v),169(v),148(v)
                                                    223(g),225(g)
    30. BD (   1) C  14 - C  15          1.98041    -0.69260  208(v),218(g),225(g),118(v)
                                                    226(v),230(g),160(v),229(g)
                                                    159(v)
    31. BD (   2) C  14 - C  15          1.71572    -0.24484  217(v),224(v),123(v),161(v)
    32. BD (   1) C  14 - H  23          1.98275    -0.51503  218(v),223(v),179(v),159(v)
                                                    227(g),225(g)
    33. BD (   1) C  15 - H  24          1.98036    -0.51578  216(v),225(v),119(v),169(v)
                                                    218(g),227(g),211(r)
    34. CR (   1) C   1                  1.99909   -10.04191  99(v),59(v),202(v),203(v)
                                                    209(v),62(v),212(v)
    35. CR (   1) C   2                  1.99906   -10.03911  49(v),69(v),204(v),206(v)
                                                    200(v),201(v)
    36. CR (   1) C   3                  1.99901   -10.04117  78(v),59(v),109(v),208(v)
                                                    207(v),198(v),213(v),203(v)
    37. CR (   1) C   4                  1.99900   -10.04353  69(v),89(v),119(v),218(v)
                                                    206(v),202(v),209(v),216(v)
                                                    211(v)
    38. CR (   1) C   5                  1.99907   -10.03934  99(v),79(v),208(v),204(v)
                                                    200(v),212(v),78(v)
    39. CR (   1) C   6                  1.99911   -10.04259  89(v),49(v),207(v),211(v)
                                                    198(v),201(v),92(v)
    40. CR (   1) C   7                  1.99906   -10.03865  139(v),68(v),219(v),204(v)
                                                    202(v),221(v),213(g),142(v)
                                                    72(v)
    41. CR (   1) C   8                  1.99900   -10.04353  129(v),180(v),79(v),207(v)
                                                    219(v),220(v),227(v),204(v)
                                                    230(v)
    42. CR (   1) C   9                  1.99901   -10.04117  118(v),149(v),139(v),208(v)
                                                    218(v),223(v),213(v),222(v)
    43. CR (   1) C  10                  1.99906   -10.03865  109(v),128(v),206(v),216(v)
                                                    220(v),215(v),213(g),112(v)
                                                    132(v)
    44. CR (   1) C  11                  1.99906   -10.03911  160(v),129(v),216(v),219(v)
                                                    225(v),226(v)
    45. CR (   1) C  13                  1.99909   -10.04191  170(v),149(v),220(v),222(v)
                                                    227(v),152(v),229(v)
    46. CR (   1) C  14                  1.99911   -10.04259  180(v),160(v),218(v),230(v)
                                                    223(v),226(v),183(v)
    47. CR (   1) C  15                  1.99907   -10.03934  170(v),119(v),208(v),216(v)
                                                    225(v),229(v),118(v)
    48. RY*(   1) C   1                  0.00473     1.28830   
    49. RY*(   2) C   1                  0.00283     0.70391   
    50. RY*(   3) C   1                  0.00065     1.67969   
    51. RY*(   4) C   1                  0.00048     0.96513   
    52. RY*(   5) C   1                  0.00024     1.22309   
    53. RY*(   6) C   1                  0.00010     2.36533   
    54. RY*(   7) C   1                  0.00005     3.33941   
    55. RY*(   8) C   1                  0.00000     1.73316   
    56. RY*(   9) C   1                  0.00001     2.59568   
    57. RY*(  10) C   1                  0.00001     2.60230   
    58. RY*(   1) C   2                  0.00486     1.29409   
    59. RY*(   2) C   2                  0.00269     0.77431   
    60. RY*(   3) C   2                  0.00064     1.70136   
    61. RY*(   4) C   2                  0.00049     0.92552   
    62. RY*(   5) C   2                  0.00030     1.20937   
    63. RY*(   6) C   2                  0.00008     2.36197   
    64. RY*(   7) C   2                  0.00004     3.44741   
    65. RY*(   8) C   2                  0.00001     2.29776   
    66. RY*(   9) C   2                  0.00001     2.89009   
    67. RY*(  10) C   2                  0.00002     1.76450   
    68. RY*(   1) C   3                  0.00524     1.35024   
    69. RY*(   2) C   3                  0.00499     1.30361   
    70. RY*(   3) C   3                  0.00065     1.84182   
    71. RY*(   4) C   3                  0.00060     1.92646   
    72. RY*(   5) C   3                  0.00038     1.11167   
    73. RY*(   6) C   3                  0.00033     0.79157   
    74. RY*(   7) C   3                  0.00014     2.73991   
    75. RY*(   8) C   3                  0.00007     2.41737   
    76. RY*(   9) C   3                  0.00005     3.50628   
    77. RY*(  10) C   3                  0.00001     2.72636   
    78. RY*(   1) C   4                  0.00537     1.33875   
    79. RY*(   2) C   4                  0.00477     1.41946   
    80. RY*(   3) C   4                  0.00063     1.71168   
    81. RY*(   4) C   4                  0.00057     1.89246   
    82. RY*(   5) C   4                  0.00038     1.14995   
    83. RY*(   6) C   4                  0.00035     0.96105   
    84. RY*(   7) C   4                  0.00009     3.12803   
    85. RY*(   8) C   4                  0.00008     2.39088   
    86. RY*(   9) C   4                  0.00006     3.25898   
    87. RY*(  10) C   4                  0.00001     2.64306   
    88. RY*(   1) C   5                  0.00455     1.30647   
    89. RY*(   2) C   5                  0.00266     0.83650   
    90. RY*(   3) C   5                  0.00065     1.78917   
    91. RY*(   4) C   5                  0.00042     0.86082   
    92. RY*(   5) C   5                  0.00031     1.15791   
    93. RY*(   6) C   5                  0.00009     2.51793   
    94. RY*(   7) C   5                  0.00004     3.08122   
    95. RY*(   8) C   5                  0.00005     2.73578   
    96. RY*(   9) C   5                  0.00001     1.75008   
    97. RY*(  10) C   5                  0.00001     2.78205   
    98. RY*(   1) C   6                  0.00482     1.28392   
    99. RY*(   2) C   6                  0.00285     0.71424   
   100. RY*(   3) C   6                  0.00066     1.66466   
   101. RY*(   4) C   6                  0.00049     0.98769   
   102. RY*(   5) C   6                  0.00027     1.20076   
   103. RY*(   6) C   6                  0.00011     2.36688   
   104. RY*(   7) C   6                  0.00004     3.30437   
   105. RY*(   8) C   6                  0.00001     2.18234   
   106. RY*(   9) C   6                  0.00001     3.07446   
   107. RY*(  10) C   6                  0.00000     1.72507   
   108. RY*(   1) C   7                  0.00479     1.30292   
   109. RY*(   2) C   7                  0.00281     0.76155   
   110. RY*(   3) C   7                  0.00079     1.27318   
   111. RY*(   4) C   7                  0.00039     1.34596   
   112. RY*(   5) C   7                  0.00034     1.30496   
   113. RY*(   6) C   7                  0.00008     2.33407   
   114. RY*(   7) C   7                  0.00004     3.55807   
   115. RY*(   8) C   7                  0.00001     2.41196   
   116. RY*(   9) C   7                  0.00001     2.66266   
   117. RY*(  10) C   7                  0.00001     1.77491   
   118. RY*(   1) C   8                  0.00537     1.33875   
   119. RY*(   2) C   8                  0.00477     1.41946   
   120. RY*(   3) C   8                  0.00063     1.71168   
   121. RY*(   4) C   8                  0.00057     1.89246   
   122. RY*(   5) C   8                  0.00038     1.14995   
   123. RY*(   6) C   8                  0.00035     0.96105   
   124. RY*(   7) C   8                  0.00009     3.12803   
   125. RY*(   8) C   8                  0.00008     2.39088   
   126. RY*(   9) C   8                  0.00006     3.25898   
   127. RY*(  10) C   8                  0.00001     2.64306   
   128. RY*(   1) C   9                  0.00524     1.35024   
   129. RY*(   2) C   9                  0.00499     1.30361   
   130. RY*(   3) C   9                  0.00065     1.84182   
   131. RY*(   4) C   9                  0.00060     1.92646   
   132. RY*(   5) C   9                  0.00038     1.11167   
   133. RY*(   6) C   9                  0.00033     0.79157   
   134. RY*(   7) C   9                  0.00014     2.73991   
   135. RY*(   8) C   9                  0.00007     2.41737   
   136. RY*(   9) C   9                  0.00005     3.50628   
   137. RY*(  10) C   9                  0.00001     2.72636   
   138. RY*(   1) C  10                  0.00479     1.30292   
   139. RY*(   2) C  10                  0.00281     0.76155   
   140. RY*(   3) C  10                  0.00079     1.27318   
   141. RY*(   4) C  10                  0.00039     1.34596   
   142. RY*(   5) C  10                  0.00034     1.30496   
   143. RY*(   6) C  10                  0.00008     2.33407   
   144. RY*(   7) C  10                  0.00004     3.55807   
   145. RY*(   8) C  10                  0.00001     2.41196   
   146. RY*(   9) C  10                  0.00001     2.66266   
   147. RY*(  10) C  10                  0.00001     1.77491   
   148. RY*(   1) C  11                  0.00486     1.29409   
   149. RY*(   2) C  11                  0.00269     0.77431   
   150. RY*(   3) C  11                  0.00064     1.70136   
   151. RY*(   4) C  11                  0.00049     0.92552   
   152. RY*(   5) C  11                  0.00030     1.20937   
   153. RY*(   6) C  11                  0.00008     2.36197   
   154. RY*(   7) C  11                  0.00004     3.44741   
   155. RY*(   8) C  11                  0.00001     2.29776   
   156. RY*(   9) C  11                  0.00001     2.89009   
   157. RY*(  10) C  11                  0.00002     1.76450   
   158. RY*(   1) H  12                  0.00109     0.57543   
   159. RY*(   1) C  13                  0.00473     1.28830   
   160. RY*(   2) C  13                  0.00283     0.70391   
   161. RY*(   3) C  13                  0.00065     1.67969   
   162. RY*(   4) C  13                  0.00048     0.96513   
   163. RY*(   5) C  13                  0.00024     1.22309   
   164. RY*(   6) C  13                  0.00010     2.36533   
   165. RY*(   7) C  13                  0.00005     3.33941   
   166. RY*(   8) C  13                  0.00000     1.73316   
   167. RY*(   9) C  13                  0.00001     2.59568   
   168. RY*(  10) C  13                  0.00001     2.60230   
   169. RY*(   1) C  14                  0.00482     1.28392   
   170. RY*(   2) C  14                  0.00285     0.71424   
   171. RY*(   3) C  14                  0.00066     1.66466   
   172. RY*(   4) C  14                  0.00049     0.98769   
   173. RY*(   5) C  14                  0.00027     1.20076   
   174. RY*(   6) C  14                  0.00011     2.36688   
   175. RY*(   7) C  14                  0.00004     3.30437   
   176. RY*(   8) C  14                  0.00001     2.18234   
   177. RY*(   9) C  14                  0.00001     3.07446   
   178. RY*(  10) C  14                  0.00000     1.72507   
   179. RY*(   1) C  15                  0.00455     1.30647   
   180. RY*(   2) C  15                  0.00266     0.83650   
   181. RY*(   3) C  15                  0.00065     1.78917   
   182. RY*(   4) C  15                  0.00042     0.86082   
   183. RY*(   5) C  15                  0.00031     1.15791   
   184. RY*(   6) C  15                  0.00009     2.51793   
   185. RY*(   7) C  15                  0.00004     3.08122   
   186. RY*(   8) C  15                  0.00005     2.73578   
   187. RY*(   9) C  15                  0.00001     1.75008   
   188. RY*(  10) C  15                  0.00001     2.78205   
   189. RY*(   1) H  16                  0.00105     0.57414   
   190. RY*(   1) H  17                  0.00081     0.56409   
   191. RY*(   1) H  18                  0.00109     0.57543   
   192. RY*(   1) H  19                  0.00097     0.64519   
   193. RY*(   1) H  20                  0.00081     0.56483   
   194. RY*(   1) H  21                  0.00105     0.57414   
   195. RY*(   1) H  22                  0.00081     0.56409   
   196. RY*(   1) H  23                  0.00081     0.56483   
   197. RY*(   1) H  24                  0.00097     0.64519   
   198. BD*(   1) C   1 - C   2          0.01364     0.60910   
   199. BD*(   2) C   1 - C   2          0.27890     0.04581  224(r),210(v),205(v),61(g)
                                                    51(g)
   200. BD*(   1) C   1 - C   6          0.01648     0.56951   
   201. BD*(   1) C   1 - H  17          0.01217     0.47809   
   202. BD*(   1) C   2 - C   3          0.02074     0.56679   
   203. BD*(   1) C   2 - H  18          0.01291     0.47170   
   204. BD*(   1) C   3 - C   4          0.02921     0.55996   
   205. BD*(   2) C   3 - C   4          0.43669     0.04435  217(v),210(v),199(v),214(v)
                                                    228(r),73(g),83(g),224(r)
                                                    110(v)
   206. BD*(   1) C   3 - C   7          0.02214     0.53913   
   207. BD*(   1) C   4 - C   5          0.02139     0.56838   
   208. BD*(   1) C   4 - C   8          0.02724     0.52657   
   209. BD*(   1) C   5 - C   6          0.01374     0.60759   
   210. BD*(   2) C   5 - C   6          0.28158     0.04507  228(r),205(v),199(v),91(g)
                                                    101(g),217(r)
   211. BD*(   1) C   5 - H  19          0.01368     0.47885   
   212. BD*(   1) C   6 - H  20          0.01194     0.47799   
   213. BD*(   1) C   7 - C  10          0.01175     0.64224   
   214. BD*(   2) C   7 - C  10          0.19680     0.05297  205(v),217(v),111(g),141(g)
   215. BD*(   1) C   7 - H  16          0.01302     0.47112   
   216. BD*(   1) C   8 - C   9          0.02921     0.55996   
   217. BD*(   2) C   8 - C   9          0.43669     0.04435  205(v),228(v),224(v),214(v)
                                                    210(r),133(g),123(g),199(r)
                                                    140(v)
   218. BD*(   1) C   8 - C  15          0.02139     0.56838   
   219. BD*(   1) C   9 - C  10          0.02214     0.53913   
   220. BD*(   1) C   9 - C  11          0.02074     0.56679   
   221. BD*(   1) C  10 - H  21          0.01302     0.47112   
   222. BD*(   1) C  11 - H  12          0.01291     0.47170   
   223. BD*(   1) C  11 - C  13          0.01364     0.60910   
   224. BD*(   2) C  11 - C  13          0.27890     0.04581  199(r),228(v),217(v),151(g)
                                                    162(g)
   225. BD*(   1) C  13 - C  14          0.01648     0.56951   
   226. BD*(   1) C  13 - H  22          0.01217     0.47809   
   227. BD*(   1) C  14 - C  15          0.01374     0.60759   
   228. BD*(   2) C  14 - C  15          0.28158     0.04507  210(r),217(v),224(v),182(g)
                                                    172(g),205(r)
   229. BD*(   1) C  14 - H  23          0.01194     0.47799   
   230. BD*(   1) C  15 - H  24          0.01368     0.47885   
       -------------------------------
              Total Lewis   91.21763  ( 97.0400%)
        Valence non-Lewis    2.63225  (  2.8003%)
        Rydberg non-Lewis    0.15012  (  0.1597%)
       -------------------------------
            Total unit  1   94.00000  (100.0000%)
           Charge unit  1    0.00000
 1|1|UNPC-X500|SP|RB3LYP|6-31G(d)|C14H10|SOBEREVA|29-Oct-2019|0||# b3ly
 p/6-31g(d) pop=nboread||B3LYP/6-31G* opted||0,1|C,0,0.,3.56170443,-0.2
 963179|C,0,0.,2.83732848,0.87908396|C,0,0.,1.4229384,0.86600943|C,0,0.
 ,0.72894463,-0.38090931|C,0,0.,1.50038212,-1.56687921|C,0,0.,2.8829465
 2,-1.52930736|C,0,0.,0.67978135,2.09387164|C,0,0.,-0.72894463,-0.38090
 931|C,0,0.,-1.4229384,0.86600943|C,0,0.,-0.67978135,2.09387164|C,0,0.,
 -2.83732848,0.87908396|H,0,0.,-3.34813197,1.83936819|C,0,0.,-3.5617044
 3,-0.2963179|C,0,0.,-2.88294652,-1.52930736|C,0,0.,-1.50038212,-1.5668
 7921|H,0,0.,1.23270172,3.03031703|H,0,0.,4.64805348,-0.27180616|H,0,0.
 ,3.34813197,1.83936819|H,0,0.,1.00691047,-2.53294453|H,0,0.,3.44695155
 ,-2.45824213|H,0,0.,-1.23270172,3.03031703|H,0,0.,-4.64805348,-0.27180
 616|H,0,0.,-3.44695155,-2.45824213|H,0,0.,-1.00691047,-2.53294453||Ver
 sion=EM64W-G16RevA.03|State=1-A1|HF=-539.5386305|RMSD=9.633e-009|Dipol
 e=0.,0.,-0.0164133|Quadrupole=-7.7627447,4.0653178,3.6974269,0.,0.,0.|
 PG=C02V [SGV(C14H10)]||@


 In the beginning the Universe was created.
 This has made a lot of people very angry
 and been widely regarded as a bad move.
                               -D.Adams
 Job cpu time:       0 days  0 hours  0 minutes 54.0 seconds.
 Elapsed time:       0 days  0 hours  0 minutes 49.2 seconds.
 File lengths (MBytes):  RWF=     27 Int=      0 D2E=      0 Chk=      4 Scr=      1
 Normal termination of Gaussian 16 at Tue Oct 29 13:49:55 2019.
