 Default is to use a total of   4 processors:
                                4 via shared-memory
                                1 via Linda
 Entering Link 1 = d:\study\G03W\l1.exe PID=      5700.
  
 Copyright (c) 1988,1990,1992,1993,1995,1998,2003,2004,2007, Gaussian, Inc.
                  All Rights Reserved.
  
 This is the Gaussian(R) 03 program.  It is based on the
 the Gaussian(R) 98 system (copyright 1998, Gaussian, Inc.),
 the Gaussian(R) 94 system (copyright 1995, Gaussian, Inc.),
 the Gaussian 92(TM) system (copyright 1992, Gaussian, Inc.),
 the Gaussian 90(TM) system (copyright 1990, Gaussian, Inc.),
 the Gaussian 88(TM) system (copyright 1988, Gaussian, Inc.),
 the Gaussian 86(TM) system (copyright 1986, Carnegie Mellon
 University), and the Gaussian 82(TM) system (copyright 1983,
 Carnegie Mellon University). Gaussian is a federally registered
 trademark of Gaussian, Inc.
  
 This software contains proprietary and confidential information,
 including trade secrets, belonging to Gaussian, Inc.
  
 This software is provided under written license and may be
 used, copied, transmitted, or stored only in accord with that
 written license.
  
 The following legend is applicable only to US Government
 contracts under FAR:
  
                    RESTRICTED RIGHTS LEGEND
  
 Use, reproduction and disclosure by the US Government is
 subject to restrictions as set forth in subparagraphs (a)
 and (c) of the Commercial Computer Software - Restricted
 Rights clause in FAR 52.227-19.
  
 Gaussian, Inc.
 340 Quinnipiac St., Bldg. 40, Wallingford CT 06492
  
  
 ---------------------------------------------------------------
 Warning -- This program may not be used in any manner that
 competes with the business of Gaussian, Inc. or will provide
 assistance to any competitor of Gaussian, Inc.  The licensee
 of this program is prohibited from giving any competitor of
 Gaussian, Inc. access to this program.  By using this program,
 the user acknowledges that Gaussian, Inc. is engaged in the
 business of creating and licensing software in the field of
 computational chemistry and represents and warrants to the
 licensee that it is not a competitor of Gaussian, Inc. and that
 it will not use this program in any manner prohibited above.
 ---------------------------------------------------------------
  

 Cite this work as:
 Gaussian 03, Revision E.01,
 M. J. Frisch, G. W. Trucks, H. B. Schlegel, G. E. Scuseria, 
 M. A. Robb, J. R. Cheeseman, J. A. Montgomery, Jr., T. Vreven, 
 K. N. Kudin, J. C. Burant, J. M. Millam, S. S. Iyengar, J. Tomasi, 
 V. Barone, B. Mennucci, M. Cossi, G. Scalmani, N. Rega, 
 G. A. Petersson, H. Nakatsuji, M. Hada, M. Ehara, K. Toyota, 
 R. Fukuda, J. Hasegawa, M. Ishida, T. Nakajima, Y. Honda, O. Kitao, 
 H. Nakai, M. Klene, X. Li, J. E. Knox, H. P. Hratchian, J. B. Cross, 
 V. Bakken, C. Adamo, J. Jaramillo, R. Gomperts, R. E. Stratmann, 
 O. Yazyev, A. J. Austin, R. Cammi, C. Pomelli, J. W. Ochterski, 
 P. Y. Ayala, K. Morokuma, G. A. Voth, P. Salvador, J. J. Dannenberg, 
 V. G. Zakrzewski, S. Dapprich, A. D. Daniels, M. C. Strain, 
 O. Farkas, D. K. Malick, A. D. Rabuck, K. Raghavachari, 
 J. B. Foresman, J. V. Ortiz, Q. Cui, A. G. Baboul, S. Clifford, 
 J. Cioslowski, B. B. Stefanov, G. Liu, A. Liashenko, P. Piskorz, 
 I. Komaromi, R. L. Martin, D. J. Fox, T. Keith, M. A. Al-Laham, 
 C. Y. Peng, A. Nanayakkara, M. Challacombe, P. M. W. Gill, 
 B. Johnson, W. Chen, M. W. Wong, C. Gonzalez, and J. A. Pople, 
 Gaussian, Inc., Wallingford CT, 2004.
 
 ******************************************
 Gaussian 03:  IA32W-G03RevE.01 11-Sep-2007
                29-Nov-2012 
 ******************************************
 %chk=C:\gtest\phenanthrene.chk
 ---------------------------
 #p b3lyp/6-31g* pop=nboread
 ---------------------------
 1/38=1/1;
 2/17=6,18=5,40=1/2;
 3/5=1,6=6,7=1,11=2,16=1,25=1,30=1,74=-5/1,2,3;
 4//1;
 5/5=2,32=1,38=5/2;
 6/7=2,8=2,9=2,10=2,28=1,40=1/1,7;
 99/5=1,9=1/99;
 Leave Link    1 at Thu Nov 29 03:15:24 2012, MaxMem=          0 cpu:       1.0
 (Enter d:\study\G03W\l101.exe)
 ------------------
 b3lyp/6-31g* opted
 ------------------
 Symbolic Z-matrix:
 Charge =  0 Multiplicity = 1
 C                     0.        3.5617   -0.29632 
 C                     0.        2.83733   0.87908 
 C                     0.        1.42294   0.86601 
 C                     0.        0.72894  -0.38091 
 C                     0.        1.50038  -1.56688 
 C                     0.        2.88295  -1.52931 
 C                     0.        0.67978   2.09387 
 C                     0.       -0.72894  -0.38091 
 C                     0.       -1.42294   0.86601 
 C                     0.       -0.67978   2.09387 
 C                     0.       -2.83733   0.87908 
 H                     0.       -3.34813   1.83937 
 C                     0.       -3.5617   -0.29632 
 C                     0.       -2.88295  -1.52931 
 C                     0.       -1.50038  -1.56688 
 H                     0.        1.2327    3.03032 
 H                     0.        4.64805  -0.27181 
 H                     0.        3.34813   1.83937 
 H                     0.        1.00691  -2.53295 
 H                     0.        3.44695  -2.45824 
 H                     0.       -1.2327    3.03032 
 H                     0.       -4.64805  -0.27181 
 H                     0.       -3.44695  -2.45824 
 H                     0.       -1.00691  -2.53295 
 
                    Isotopes and Nuclear Properties:
 (Nuclear quadrupole moments (NQMom) in fm**2, nuclear magnetic moments (NMagM)
  in nuclear magnetons)

  Atom         1           2           3           4           5           6           7           8           9          10
 IAtWgt=          12          12          12          12          12          12          12          12          12          12
 AtmWgt=  12.0000000  12.0000000  12.0000000  12.0000000  12.0000000  12.0000000  12.0000000  12.0000000  12.0000000  12.0000000
 NucSpn=           0           0           0           0           0           0           0           0           0           0
 AtZEff=   0.0000000   0.0000000   0.0000000   0.0000000   0.0000000   0.0000000   0.0000000   0.0000000   0.0000000   0.0000000
 NQMom=    0.0000000   0.0000000   0.0000000   0.0000000   0.0000000   0.0000000   0.0000000   0.0000000   0.0000000   0.0000000
 NMagM=    0.0000000   0.0000000   0.0000000   0.0000000   0.0000000   0.0000000   0.0000000   0.0000000   0.0000000   0.0000000

  Atom        11          12          13          14          15          16          17          18          19          20
 IAtWgt=          12           1          12          12          12           1           1           1           1           1
 AtmWgt=  12.0000000   1.0078250  12.0000000  12.0000000  12.0000000   1.0078250   1.0078250   1.0078250   1.0078250   1.0078250
 NucSpn=           0           1           0           0           0           1           1           1           1           1
 AtZEff=   0.0000000   0.0000000   0.0000000   0.0000000   0.0000000   0.0000000   0.0000000   0.0000000   0.0000000   0.0000000
 NQMom=    0.0000000   0.0000000   0.0000000   0.0000000   0.0000000   0.0000000   0.0000000   0.0000000   0.0000000   0.0000000
 NMagM=    0.0000000   2.7928460   0.0000000   0.0000000   0.0000000   2.7928460   2.7928460   2.7928460   2.7928460   2.7928460

  Atom        21          22          23          24
 IAtWgt=           1           1           1           1
 AtmWgt=   1.0078250   1.0078250   1.0078250   1.0078250
 NucSpn=           1           1           1           1
 AtZEff=   0.0000000   0.0000000   0.0000000   0.0000000
 NQMom=    0.0000000   0.0000000   0.0000000   0.0000000
 NMagM=    2.7928460   2.7928460   2.7928460   2.7928460
 Leave Link  101 at Thu Nov 29 03:15:24 2012, MaxMem=  196608000 cpu:       0.0
 (Enter d:\study\G03W\l202.exe)
                          Input orientation:                          
 ---------------------------------------------------------------------
 Center     Atomic     Atomic              Coordinates (Angstroms)
 Number     Number      Type              X           Y           Z
 ---------------------------------------------------------------------
    1          6             0        0.000000    3.561704   -0.296318
    2          6             0        0.000000    2.837328    0.879084
    3          6             0        0.000000    1.422938    0.866009
    4          6             0        0.000000    0.728944   -0.380909
    5          6             0        0.000000    1.500382   -1.566879
    6          6             0        0.000000    2.882946   -1.529307
    7          6             0        0.000000    0.679781    2.093871
    8          6             0        0.000000   -0.728944   -0.380909
    9          6             0        0.000000   -1.422938    0.866009
   10          6             0        0.000000   -0.679781    2.093871
   11          6             0        0.000000   -2.837328    0.879084
   12          1             0        0.000000   -3.348131    1.839368
   13          6             0        0.000000   -3.561704   -0.296318
   14          6             0        0.000000   -2.882946   -1.529307
   15          6             0        0.000000   -1.500382   -1.566879
   16          1             0        0.000000    1.232701    3.030317
   17          1             0        0.000000    4.648053   -0.271805
   18          1             0        0.000000    3.348131    1.839368
   19          1             0        0.000000    1.006911   -2.532945
   20          1             0        0.000000    3.446951   -2.458242
   21          1             0        0.000000   -1.232701    3.030317
   22          1             0        0.000000   -4.648053   -0.271805
   23          1             0        0.000000   -3.446951   -2.458242
   24          1             0        0.000000   -1.006911   -2.532945
 ---------------------------------------------------------------------
                    Distance matrix (angstroms):
                    1          2          3          4          5
     1  C    0.000000
     2  C    1.380685   0.000000
     3  C    2.434199   1.414450   0.000000
     4  C    2.834023   2.456189   1.427036   0.000000
     5  C    2.421440   2.787501   2.434120   1.414794   0.000000
     6  C    1.407471   2.408823   2.805203   2.441013   1.383074
     7  C    3.744127   2.476028   1.435245   2.475268   3.751597
     8  C    4.291482   3.782311   2.487047   1.457888   2.525157
     9  C    5.118365   4.260286   2.845876   2.487047   3.803254
    10  C    4.868593   3.720990   2.434969   2.847638   4.260775
    11  C    6.506088   5.674656   4.260286   3.782311   4.979806
    12  H    7.232356   6.259557   4.869346   4.642432   5.925420
    13  C    7.123408   6.506088   5.118365   4.291482   5.219103
    14  C    6.561538   6.206600   4.927289   3.790062   4.383489
    15  C    5.219103   4.979806   3.803254   2.525157   3.000764
    16  H    4.060881   2.683772   2.172653   3.448222   4.604983
    17  H    1.086626   2.145523   3.419940   3.920627   3.403682
    18  H    2.146338   1.087688   2.157266   3.433624   3.875138
    19  H    3.395507   3.871998   3.424320   2.169914   1.084803
    20  H    2.164967   3.392548   3.891950   3.420946   2.140948
    21  H    5.835479   4.603579   3.425879   3.935037   5.348266
    22  H    8.209794   7.573340   6.176694   5.378104   6.283349
    23  H    7.334518   7.115470   5.896309   4.664055   5.026990
    24  H    5.086722   5.140050   4.178164   2.764860   2.686969
                    6          7          8          9         10
     6  C    0.000000
     7  C    4.240443   0.000000
     8  C    3.790062   2.847638   0.000000
     9  C    4.927289   2.434969   1.427036   0.000000
    10  C    5.081382   1.359562   2.475268   1.435245   0.000000
    11  C    6.206600   3.720990   2.456189   1.414450   2.476028
    12  H    7.083381   4.035944   3.433624   2.157266   2.680460
    13  C    6.561538   4.868593   2.834023   2.434199   3.744127
    14  C    5.765892   5.081382   2.441013   2.805203   4.240443
    15  C    4.383489   4.260775   1.414794   2.434120   3.751597
    16  H    4.849070   1.087498   3.935037   3.425879   2.129441
    17  H    2.167236   4.619914   5.378104   6.176694   5.829429
    18  H    3.400642   2.680460   4.642432   4.869346   4.035944
    19  H    2.127627   4.638366   2.764860   4.178164   4.924668
    20  H    1.086748   5.327191   4.664055   5.896309   6.144237
    21  H    6.142371   2.129441   3.448222   2.172653   1.087498
    22  H    7.635264   5.829429   3.920627   3.419940   4.619914
    23  H    6.397696   6.144237   3.420946   3.891950   5.327191
    24  H    4.017247   4.924668   2.169914   3.424320   4.638366
                   11         12         13         14         15
    11  C    0.000000
    12  H    1.087688   0.000000
    13  C    1.380685   2.146338   0.000000
    14  C    2.408823   3.400642   1.407471   0.000000
    15  C    2.787501   3.875138   2.421440   1.383074   0.000000
    16  H    4.603579   4.733115   5.835479   6.142371   5.348266
    17  H    7.573340   8.270188   8.209794   7.635264   6.283349
    18  H    6.259557   6.696262   7.232356   7.083381   5.925420
    19  H    5.140050   6.171184   5.086722   4.017247   2.686969
    20  H    7.115470   8.040062   7.334518   6.397696   5.026990
    21  H    2.683772   2.427633   4.060881   4.849070   4.604983
    22  H    2.145523   2.479284   1.086626   2.167236   3.403682
    23  H    3.392548   4.298746   2.164967   1.086748   2.140948
    24  H    3.871998   4.959681   3.395507   2.127627   1.084803
                   16         17         18         19         20
    16  H    0.000000
    17  H    4.750646   0.000000
    18  H    2.427633   2.479284   0.000000
    19  H    5.567842   4.286102   4.959681   0.000000
    20  H    5.918377   2.494625   4.298746   2.441183   0.000000
    21  H    2.465402   6.744426   4.733115   5.997145   7.212726
    22  H    6.744426   9.296106   8.270188   6.090269   8.385082
    23  H    7.212726   8.385082   8.040062   4.454488   6.893902
    24  H    5.997145   6.090269   6.171184   2.013822   4.454488
                   21         22         23         24
    21  H    0.000000
    22  H    4.750646   0.000000
    23  H    5.918377   2.494625   0.000000
    24  H    5.567842   4.286102   2.441183   0.000000
 Stoichiometry    C14H10
 Framework group  C2V[SGV(C14H10)]
 Deg. of freedom    23
 Full point group                 C2V
 Largest Abelian subgroup         C2V     NOp   4
 Largest concise Abelian subgroup C2      NOp   2
                         Standard orientation:                         
 ---------------------------------------------------------------------
 Center     Atomic     Atomic              Coordinates (Angstroms)
 Number     Number      Type              X           Y           Z
 ---------------------------------------------------------------------
    1          6             0        0.000000    3.561704   -0.296318
    2          6             0        0.000000    2.837328    0.879084
    3          6             0        0.000000    1.422938    0.866009
    4          6             0        0.000000    0.728944   -0.380909
    5          6             0        0.000000    1.500382   -1.566879
    6          6             0        0.000000    2.882946   -1.529307
    7          6             0        0.000000    0.679781    2.093871
    8          6             0        0.000000   -0.728944   -0.380909
    9          6             0        0.000000   -1.422938    0.866009
   10          6             0        0.000000   -0.679781    2.093871
   11          6             0        0.000000   -2.837328    0.879084
   12          1             0        0.000000   -3.348131    1.839368
   13          6             0        0.000000   -3.561704   -0.296318
   14          6             0        0.000000   -2.882946   -1.529307
   15          6             0        0.000000   -1.500382   -1.566879
   16          1             0        0.000000    1.232701    3.030317
   17          1             0        0.000000    4.648053   -0.271805
   18          1             0        0.000000    3.348131    1.839368
   19          1             0        0.000000    1.006911   -2.532945
   20          1             0        0.000000    3.446951   -2.458242
   21          1             0        0.000000   -1.232701    3.030317
   22          1             0        0.000000   -4.648053   -0.271805
   23          1             0        0.000000   -3.446951   -2.458242
   24          1             0        0.000000   -1.006911   -2.532945
 ---------------------------------------------------------------------
 Rotational constants (GHZ):      1.6146343      0.5500404      0.4102760
 Leave Link  202 at Thu Nov 29 03:15:25 2012, MaxMem=  196608000 cpu:       0.0
 (Enter d:\study\G03W\l301.exe)
 Standard basis: 6-31G(d) (6D, 7F)
 There are    87 symmetry adapted basis functions of A1  symmetry.
 There are    28 symmetry adapted basis functions of A2  symmetry.
 There are    28 symmetry adapted basis functions of B1  symmetry.
 There are    87 symmetry adapted basis functions of B2  symmetry.
 Integral buffers will be    262144 words long.
 Raffenetti 2 integral format.
 Two-electron integral symmetry is turned on.
   230 basis functions,   432 primitive gaussians,   230 cartesian basis functions
    47 alpha electrons       47 beta electrons
       nuclear repulsion energy       774.4086783165 Hartrees.
 IExCor= 402 DFT=T Ex=B+HF Corr=LYP ExCW=0 ScaHFX=  0.200000
 ScaDFX=  0.800000  0.720000  1.000000  0.810000
 IRadAn=      0 IRanWt=     -1 IRanGd=            0 ICorTp=0
 NAtoms=   24 NActive=   24 NUniq=   12 SFac= 3.00D+00 NAtFMM=   80 NAOKFM=F Big=F
 Leave Link  301 at Thu Nov 29 03:15:25 2012, MaxMem=  196608000 cpu:       0.0
 (Enter d:\study\G03W\l302.exe)
 NPDir=0 NMtPBC=     1 NCelOv=     1 NCel=       1 NClECP=     1 NCelD=      1
         NCelK=      1 NCelE2=     1 NClLst=     1 CellRange=     0.0.
 One-electron integrals computed using PRISM.
 One-electron integral symmetry used in STVInt
 NBasis=   230 RedAO= T  NBF=    87    28    28    87
 NBsUse=   230 1.00D-06 NBFU=    87    28    28    87
 Precomputing XC quadrature grid using
 IXCGrd= 2 IRadAn=           0 IRanWt=          -1 IRanGd=           0.
 NRdTot=    1508 NPtTot=      191696 NUsed=      198531 NTot=      198547
 NSgBfM=   229   229   229   229.
 Leave Link  302 at Thu Nov 29 03:15:27 2012, MaxMem=  196608000 cpu:       1.0
 (Enter d:\study\G03W\l303.exe)
 DipDrv:  MaxL=1.
 Leave Link  303 at Thu Nov 29 03:15:27 2012, MaxMem=  196608000 cpu:       0.0
 (Enter d:\study\G03W\l401.exe)
 Harris functional with IExCor=  402 diagonalized for initial guess.
 ExpMin= 1.61D-01 ExpMax= 3.05D+03 ExpMxC= 4.57D+02 IAcc=1 IRadAn=         1 AccDes= 1.00D-06
 HarFok:  IExCor= 402 AccDes= 1.00D-06 IRadAn=         1 IDoV=1
 ScaDFX=  1.000000  1.000000  1.000000  1.000000
 Harris En= -539.772396377594    
 Initial guess orbital symmetries:
       Occupied  (B2) (A1) (A1) (B2) (A1) (B2) (B2) (A1) (B2) (A1)
                 (A1) (B2) (A1) (B2) (A1) (B2) (A1) (A1) (B2) (B2)
                 (A1) (A1) (B2) (A1) (B2) (B2) (A1) (A1) (A1) (B2)
                 (B2) (A1) (A1) (A1) (B2) (B2) (B1) (B2) (A1) (A1)
                 (A2) (B2) (B1) (B1) (A2) (A2) (B1)
       Virtual   (A2) (B1) (B1) (A2) (A2) (B1) (A1) (B2) (A1) (A2)
                 (A1) (B2) (A1) (A1) (B2) (B2) (A1) (B2) (B2) (A1)
                 (B2) (A1) (A1) (A1) (B2) (B2) (B2) (B2) (B2) (A1)
                 (A1) (A1) (B1) (A1) (A2) (B2) (B2) (A1) (B1) (A1)
                 (B2) (B2) (A1) (B1) (A2) (B2) (A1) (B2) (A1) (A1)
                 (B2) (A2) (B1) (B1) (B1) (A2) (A2) (A2) (A1) (B2)
                 (B1) (B2) (A1) (A1) (B2) (A1) (B2) (A1) (A2) (B2)
                 (B2) (A1) (B2) (A1) (A1) (B2) (B2) (B2) (A1) (A1)
                 (B2) (A1) (A1) (B2) (B2) (B1) (B1) (A1) (A2) (B2)
                 (A1) (B1) (B2) (A2) (B1) (A2) (B1) (B1) (A2) (A2)
                 (B1) (A1) (B2) (A1) (B2) (A1) (B2) (B2) (A1) (A1)
                 (A1) (A2) (B2) (B2) (B1) (A1) (A1) (B2) (A1) (A1)
                 (B2) (A1) (B2) (B2) (A2) (B2) (A1) (B1) (A1) (B2)
                 (B2) (A1) (A2) (B1) (A2) (B1) (B2) (A1) (A2) (B1)
                 (A1) (B1) (A2) (A2) (B2) (B2) (A1) (B2) (A1) (B1)
                 (A2) (A1) (B2) (A1) (B2) (A2) (A1) (A1) (B2) (B2)
                 (A1) (B2) (B2) (B2) (A1) (B2) (A1) (B2) (B2) (A1)
                 (B2) (A1) (A1) (B2) (A1) (B2) (B2) (A1) (A1) (B2)
                 (B2) (A1) (B2)
 The electronic state of the initial guess is 1-A1.
 Leave Link  401 at Thu Nov 29 03:15:28 2012, MaxMem=  196608000 cpu:       0.0
 (Enter d:\study\G03W\l502.exe)
 Warning!  Cutoffs for single-point calculations used.
 Closed shell SCF:
 Requested convergence on RMS density matrix=1.00D-04 within 128 cycles.
 Requested convergence on MAX density matrix=1.00D-02.
 Requested convergence on             energy=5.00D-05.
 No special actions if energy rises.
 Using DIIS extrapolation, IDIIS=  1040.
 Integral symmetry usage will be decided dynamically.
       198530 words used for storage of precomputed grid.
 IEnd=    390316 IEndB=    390316 NGot= 196608000 MDV= 196287455
 LenX= 196287455
 Fock matrices will be formed incrementally for  20 cycles.

 Cycle   1  Pass 1  IDiag  1:
 Petite list used in FoFDir.
 MinBra= 0 MaxBra= 2 Meth= 1.
 IRaf=       0 NMat=   1 IRICut=       1 DoRegI=T DoRafI=F ISym2E= 1 JSym2E=1.
 E= -539.151991806589    
 DIIS: error= 5.15D-02 at cycle   1 NSaved=   1.
 NSaved= 1 IEnMin= 1 EnMin= -539.151991806589     IErMin= 1 ErrMin= 5.15D-02
 ErrMax= 5.15D-02 EMaxC= 1.00D-01 BMatC= 3.32D-01 BMatP= 3.32D-01
 IDIUse=3 WtCom= 4.85D-01 WtEn= 5.15D-01
 Coeff-Com:  0.100D+01
 Coeff-En:   0.100D+01
 Coeff:      0.100D+01
 Gap=     0.174 Goal=   None    Shift=    0.000
 GapD=    0.174 DampG=1.000 DampE=0.500 DampFc=0.5000 IDamp=-1.
 Damping current iteration by 5.00D-01
 RMSDP=6.63D-03 MaxDP=1.29D-01              OVMax= 1.57D-01

 Cycle   2  Pass 1  IDiag  1:
 RMSU=  3.14D-03    CP:  9.53D-01
 E= -539.343558261555     Delta-E=       -0.191566454966 Rises=F Damp=T
 DIIS: error= 7.40D-03 at cycle   2 NSaved=   2.
 NSaved= 2 IEnMin= 2 EnMin= -539.343558261555     IErMin= 2 ErrMin= 7.40D-03
 ErrMax= 7.40D-03 EMaxC= 1.00D-01 BMatC= 1.14D-02 BMatP= 3.32D-01
 IDIUse=3 WtCom= 9.26D-01 WtEn= 7.40D-02
 Coeff-Com: -0.368D-01 0.104D+01
 Coeff-En:   0.000D+00 0.100D+01
 Coeff:     -0.341D-01 0.103D+01
 Gap=     0.176 Goal=   None    Shift=    0.000
 RMSDP=1.92D-03 MaxDP=3.52D-02 DE=-1.92D-01 OVMax= 9.25D-02

 Cycle   3  Pass 1  IDiag  1:
 RMSU=  1.82D-03    CP:  9.27D-01  1.02D+00
 E= -539.535965091381     Delta-E=       -0.192406829826 Rises=F Damp=F
 DIIS: error= 3.70D-03 at cycle   3 NSaved=   3.
 NSaved= 3 IEnMin= 3 EnMin= -539.535965091381     IErMin= 3 ErrMin= 3.70D-03
 ErrMax= 3.70D-03 EMaxC= 1.00D-01 BMatC= 2.84D-03 BMatP= 1.14D-02
 IDIUse=3 WtCom= 9.63D-01 WtEn= 3.70D-02
 Coeff-Com: -0.416D-01 0.316D+00 0.726D+00
 Coeff-En:   0.000D+00 0.000D+00 0.100D+01
 Coeff:     -0.401D-01 0.304D+00 0.736D+00
 Gap=     0.174 Goal=   None    Shift=    0.000
 RMSDP=5.17D-04 MaxDP=7.75D-03 DE=-1.92D-01 OVMax= 1.29D-02

 Cycle   4  Pass 1  IDiag  1:
 RMSU=  3.43D-04    CP:  9.30D-01  1.05D+00  7.98D-01
 E= -539.538125741878     Delta-E=       -0.002160650497 Rises=F Damp=F
 DIIS: error= 1.47D-03 at cycle   4 NSaved=   4.
 NSaved= 4 IEnMin= 4 EnMin= -539.538125741878     IErMin= 4 ErrMin= 1.47D-03
 ErrMax= 1.47D-03 EMaxC= 1.00D-01 BMatC= 6.67D-04 BMatP= 2.84D-03
 IDIUse=3 WtCom= 9.85D-01 WtEn= 1.47D-02
 Coeff-Com: -0.192D-01 0.958D-01 0.364D+00 0.559D+00
 Coeff-En:   0.000D+00 0.000D+00 0.109D+00 0.891D+00
 Coeff:     -0.189D-01 0.944D-01 0.360D+00 0.564D+00
 Gap=     0.174 Goal=   None    Shift=    0.000
 RMSDP=1.48D-04 MaxDP=3.83D-03 DE=-2.16D-03 OVMax= 7.26D-03

 Cycle   5  Pass 1  IDiag  1:
 RMSU=  9.84D-05    CP:  9.29D-01  1.05D+00  8.27D-01  7.14D-01
 E= -539.538721738868     Delta-E=       -0.000595996991 Rises=F Damp=F
 DIIS: error= 5.44D-04 at cycle   5 NSaved=   5.
 NSaved= 5 IEnMin= 5 EnMin= -539.538721738868     IErMin= 5 ErrMin= 5.44D-04
 ErrMax= 5.44D-04 EMaxC= 1.00D-01 BMatC= 5.75D-05 BMatP= 6.67D-04
 IDIUse=3 WtCom= 9.95D-01 WtEn= 5.44D-03
 Coeff-Com: -0.416D-02 0.853D-02 0.780D-01 0.268D+00 0.650D+00
 Coeff-En:   0.000D+00 0.000D+00 0.000D+00 0.208D-01 0.979D+00
 Coeff:     -0.413D-02 0.848D-02 0.775D-01 0.267D+00 0.651D+00
 Gap=     0.174 Goal=   None    Shift=    0.000
 RMSDP=3.91D-05 MaxDP=1.08D-03 DE=-5.96D-04 OVMax= 2.19D-03

 Cycle   6  Pass 1  IDiag  1:
 RMSU=  1.88D-05    CP:  9.29D-01  1.05D+00  8.27D-01  7.70D-01  7.15D-01
 E= -539.538778369981     Delta-E=       -0.000056631113 Rises=F Damp=F
 DIIS: error= 1.24D-04 at cycle   6 NSaved=   6.
 NSaved= 6 IEnMin= 6 EnMin= -539.538778369981     IErMin= 6 ErrMin= 1.24D-04
 ErrMax= 1.24D-04 EMaxC= 1.00D-01 BMatC= 4.03D-06 BMatP= 5.75D-05
 IDIUse=3 WtCom= 9.99D-01 WtEn= 1.24D-03
 Coeff-Com: -0.188D-02 0.236D-02 0.357D-01 0.140D+00 0.377D+00 0.447D+00
 Coeff-En:   0.000D+00 0.000D+00 0.000D+00 0.000D+00 0.000D+00 0.100D+01
 Coeff:     -0.187D-02 0.236D-02 0.356D-01 0.139D+00 0.377D+00 0.448D+00
 Gap=     0.174 Goal=   None    Shift=    0.000
 RMSDP=1.08D-05 MaxDP=3.89D-04 DE=-5.66D-05 OVMax= 8.24D-04

 Cycle   7  Pass 1  IDiag  1:
 RMSU=  6.58D-06    CP:  9.29D-01  1.05D+00  8.27D-01  7.68D-01  7.46D-01
                    CP:  5.78D-01
 E= -539.538769597192     Delta-E=        0.000008772789 Rises=F Damp=F
 DIIS: error= 4.87D-05 at cycle   7 NSaved=   7.
 NSaved= 7 IEnMin= 6 EnMin= -539.538778369981     IErMin= 7 ErrMin= 4.87D-05
 ErrMax= 4.87D-05 EMaxC= 1.00D-01 BMatC= 2.42D-07 BMatP= 4.03D-06
 IDIUse=1 WtCom= 1.00D+00 WtEn= 0.00D+00
 Coeff-Com: -0.477D-03 0.225D-03 0.938D-02 0.416D-01 0.123D+00 0.235D+00
 Coeff-Com:  0.592D+00
 Coeff:     -0.477D-03 0.225D-03 0.938D-02 0.416D-01 0.123D+00 0.235D+00
 Coeff:      0.592D+00
 Gap=     0.174 Goal=   None    Shift=    0.000
 RMSDP=4.47D-06 MaxDP=8.93D-05 DE= 8.77D-06 OVMax= 3.03D-04

 Cycle   8  Pass 1  IDiag  1:
 RMSU=  2.71D-06    CP:  9.29D-01  1.05D+00  8.28D-01  7.67D-01  7.42D-01
                    CP:  6.14D-01  5.42D-01
 E= -539.538764641165     Delta-E=        0.000004956027 Rises=F Damp=F
 DIIS: error= 2.43D-05 at cycle   8 NSaved=   8.
 NSaved= 8 IEnMin= 6 EnMin= -539.538778369981     IErMin= 8 ErrMin= 2.43D-05
 ErrMax= 2.43D-05 EMaxC= 1.00D-01 BMatC= 7.50D-08 BMatP= 2.42D-07
 IDIUse=1 WtCom= 1.00D+00 WtEn= 0.00D+00
 Coeff-Com: -0.773D-04-0.212D-03 0.174D-02 0.103D-01 0.350D-01 0.101D+00
 Coeff-Com:  0.400D+00 0.452D+00
 Coeff:     -0.773D-04-0.212D-03 0.174D-02 0.103D-01 0.350D-01 0.101D+00
 Coeff:      0.400D+00 0.452D+00
 Gap=     0.174 Goal=   None    Shift=    0.000
 RMSDP=1.68D-06 MaxDP=5.26D-05 DE= 4.96D-06 OVMax= 1.13D-04

 Cycle   9  Pass 1  IDiag  1:
 RMSU=  1.13D-06    CP:  9.29D-01  1.05D+00  8.28D-01  7.68D-01  7.44D-01
                    CP:  6.07D-01  6.28D-01  6.32D-01
 E= -539.538755728936     Delta-E=        0.000008912229 Rises=F Damp=F
 DIIS: error= 6.49D-06 at cycle   9 NSaved=   9.
 NSaved= 9 IEnMin= 6 EnMin= -539.538778369981     IErMin= 9 ErrMin= 6.49D-06
 ErrMax= 6.49D-06 EMaxC= 1.00D-01 BMatC= 2.49D-09 BMatP= 7.50D-08
 IDIUse=1 WtCom= 1.00D+00 WtEn= 0.00D+00
 Coeff-Com: -0.582D-05-0.951D-04 0.113D-03 0.185D-02 0.742D-02 0.290D-01
 Coeff-Com:  0.141D+00 0.200D+00 0.620D+00
 Coeff:     -0.582D-05-0.951D-04 0.113D-03 0.185D-02 0.742D-02 0.290D-01
 Coeff:      0.141D+00 0.200D+00 0.620D+00
 Gap=     0.174 Goal=   None    Shift=    0.000
 RMSDP=2.56D-06 MaxDP=4.76D-05 DE= 8.91D-06 OVMax= 1.04D-05

 Cycle  10  Pass 1  IDiag  1:
 RMSU=  2.11D-06    CP:  9.29D-01  1.05D+00  8.28D-01  7.67D-01  7.41D-01
                    CP:  6.12D-01  6.50D-01  5.11D-01  1.05D+00
 E= -539.538835095608     Delta-E=       -0.000079366672 Rises=F Damp=F
 DIIS: error= 6.42D-06 at cycle  10 NSaved=  10.
 NSaved=10 IEnMin=10 EnMin= -539.538835095608     IErMin=10 ErrMin= 6.42D-06
 ErrMax= 6.42D-06 EMaxC= 1.00D-01 BMatC= 1.08D-09 BMatP= 2.49D-09
 IDIUse=1 WtCom= 1.00D+00 WtEn= 0.00D+00
 Coeff-Com:  0.484D-05-0.380D-04-0.133D-03-0.728D-05 0.702D-03 0.694D-02
 Coeff-Com:  0.451D-01 0.772D-01 0.376D+00 0.494D+00
 Coeff:      0.484D-05-0.380D-04-0.133D-03-0.728D-05 0.702D-03 0.694D-02
 Coeff:      0.451D-01 0.772D-01 0.376D+00 0.494D+00
 Gap=     0.174 Goal=   None    Shift=    0.000
 RMSDP=1.27D-06 MaxDP=2.29D-05 DE=-7.94D-05 OVMax= 4.54D-06

 Cycle  11  Pass 1  IDiag  1:
 RMSU=  6.73D-07    CP:  9.29D-01  1.05D+00  8.28D-01  7.67D-01  7.39D-01
                    CP:  6.01D-01  6.27D-01  5.46D-01  1.12D+00  6.70D-01
 E= -539.538855986203     Delta-E=       -0.000020890595 Rises=F Damp=F
 DIIS: error= 7.23D-06 at cycle  11 NSaved=  11.
 NSaved=11 IEnMin=11 EnMin= -539.538855986203     IErMin=10 ErrMin= 6.42D-06
 ErrMax= 7.23D-06 EMaxC= 1.00D-01 BMatC= 1.70D-09 BMatP= 1.08D-09
 IDIUse=1 WtCom= 1.00D+00 WtEn= 0.00D+00
 Coeff-Com:  0.495D-05-0.384D-04-0.136D-03-0.141D-04 0.687D-03 0.695D-02
 Coeff-Com:  0.453D-01 0.777D-01 0.379D+00 0.501D+00-0.992D-02
 Coeff:      0.495D-05-0.384D-04-0.136D-03-0.141D-04 0.687D-03 0.695D-02
 Coeff:      0.453D-01 0.777D-01 0.379D+00 0.501D+00-0.992D-02
 Gap=     0.174 Goal=   None    Shift=    0.000
 RMSDP=4.61D-08 MaxDP=6.70D-07 DE=-2.09D-05 OVMax= 7.05D-08

 SCF Done:  E(RB+HF-LYP) =  -539.538855986     A.U. after   11 cycles
             Convg  =    0.4608D-07             -V/T =  2.0099
             S**2   =   0.0000
 KE= 5.342661104843D+02 PE=-2.797754054643D+03 EE= 9.495404098558D+02
 Leave Link  502 at Thu Nov 29 03:15:47 2012, MaxMem=  196608000 cpu:      18.0
 (Enter d:\study\G03W\l601.exe)
 Copying SCF densities to generalized density rwf, ISCF=0 IROHF=0.

 **********************************************************************

            Population analysis using the SCF density.

 **********************************************************************

 Orbital symmetries:
       Occupied  (A1) (B2) (B2) (A1) (B2) (A1) (A1) (B2) (A1) (B2)
                 (A1) (B2) (B2) (A1) (A1) (B2) (A1) (A1) (B2) (B2)
                 (A1) (A1) (B2) (A1) (B2) (B2) (A1) (A1) (B2) (A1)
                 (B2) (A1) (A1) (B2) (A1) (B1) (B2) (B2) (A1) (A2)
                 (A1) (B2) (B1) (B1) (A2) (A2) (B1)
       Virtual   (A2) (B1) (B1) (A2) (A2) (A1) (A1) (B2) (B2) (B1)
                 (A1) (A1) (B2) (A1) (B2) (A2) (A1) (B2) (B2) (A1)
                 (B2) (A1) (A1) (B2) (A1) (B2) (B2) (A1) (B2) (B2)
                 (A1) (B1) (A2) (A1) (A1) (B1) (A1) (B2) (B2) (B2)
                 (B1) (A1) (A2) (A1) (B2) (A1) (B2) (A1) (B2) (A1)
                 (A2) (B1) (B1) (B2) (B1) (A2) (A2) (A2) (B1) (A1)
                 (B2) (A1) (B2) (A1) (B2) (A1) (B2) (A2) (A1) (B2)
                 (B2) (A1) (B2) (A1) (A1) (B2) (B2) (B2) (A1) (A1)
                 (B2) (A1) (B2) (A1) (B2) (A1) (B1) (B2) (A1) (B1)
                 (A2) (B2) (B1) (A2) (B1) (A1) (B2) (A2) (B1) (A1)
                 (B2) (B1) (A2) (A1) (A2) (B1) (B2) (B2) (A1) (A1)
                 (A1) (A2) (B2) (B2) (B1) (A1) (A1) (B2) (A1) (B2)
                 (A1) (B2) (A1) (B2) (A2) (B2) (A1) (B1) (A1) (B2)
                 (B2) (A1) (A2) (B1) (A2) (B1) (B2) (A1) (A2) (A1)
                 (B1) (B1) (A2) (B2) (A2) (B2) (A1) (B2) (B1) (A2)
                 (A1) (A1) (B2) (B2) (A1) (A2) (A1) (A1) (B2) (B2)
                 (A1) (B2) (B2) (B2) (A1) (B2) (A1) (B2) (B2) (A1)
                 (B2) (A1) (A1) (B2) (A1) (B2) (B2) (A1) (A1) (B2)
                 (B2) (A1) (B2)
 The electronic state is 1-A1.
 Alpha  occ. eigenvalues --  -10.19955 -10.19921 -10.19657 -10.19656 -10.18992
 Alpha  occ. eigenvalues --  -10.18992 -10.18974 -10.18948 -10.18948 -10.18908
 Alpha  occ. eigenvalues --  -10.18908 -10.18902 -10.18883 -10.18883  -0.87779
 Alpha  occ. eigenvalues --   -0.84433  -0.80454  -0.77220  -0.75234  -0.72070
 Alpha  occ. eigenvalues --   -0.71461  -0.62876  -0.62200  -0.60698  -0.57993
 Alpha  occ. eigenvalues --   -0.53079  -0.52540  -0.49262  -0.47607  -0.47306
 Alpha  occ. eigenvalues --   -0.43426  -0.42823  -0.42348  -0.41943  -0.40639
 Alpha  occ. eigenvalues --   -0.39655  -0.39056  -0.36149  -0.35767  -0.35542
 Alpha  occ. eigenvalues --   -0.33072  -0.32190  -0.31136  -0.28110  -0.25944
 Alpha  occ. eigenvalues --   -0.22174  -0.21059
 Alpha virt. eigenvalues --   -0.03649  -0.03013   0.00939   0.03787   0.08288
 Alpha virt. eigenvalues --    0.09301   0.10509   0.10604   0.14780   0.14803
 Alpha virt. eigenvalues --    0.14823   0.16271   0.17019   0.18281   0.19681
 Alpha virt. eigenvalues --    0.22588   0.24018   0.24191   0.25997   0.28170
 Alpha virt. eigenvalues --    0.29590   0.30447   0.31078   0.32376   0.33440
 Alpha virt. eigenvalues --    0.37646   0.39645   0.46087   0.47433   0.49687
 Alpha virt. eigenvalues --    0.50418   0.50711   0.53231   0.53941   0.54893
 Alpha virt. eigenvalues --    0.54998   0.55566   0.56898   0.57388   0.57676
 Alpha virt. eigenvalues --    0.57962   0.58844   0.58882   0.60052   0.61683
 Alpha virt. eigenvalues --    0.61795   0.61885   0.62091   0.62236   0.63186
 Alpha virt. eigenvalues --    0.63556   0.63684   0.65290   0.66229   0.68917
 Alpha virt. eigenvalues --    0.69632   0.73869   0.75738   0.80094   0.80903
 Alpha virt. eigenvalues --    0.82272   0.83411   0.83757   0.84020   0.85252
 Alpha virt. eigenvalues --    0.86370   0.88393   0.88728   0.89931   0.90676
 Alpha virt. eigenvalues --    0.92544   0.94820   0.95087   0.95370   0.97135
 Alpha virt. eigenvalues --    0.99238   1.01332   1.04766   1.05059   1.07245
 Alpha virt. eigenvalues --    1.09100   1.11151   1.15565   1.17404   1.19336
 Alpha virt. eigenvalues --    1.20966   1.23310   1.23484   1.24454   1.24504
 Alpha virt. eigenvalues --    1.26715   1.31741   1.36297   1.40643   1.43197
 Alpha virt. eigenvalues --    1.44399   1.45444   1.46253   1.46972   1.48769
 Alpha virt. eigenvalues --    1.49179   1.49473   1.49592   1.50037   1.50090
 Alpha virt. eigenvalues --    1.50824   1.53047   1.63474   1.71777   1.73650
 Alpha virt. eigenvalues --    1.76650   1.78717   1.81493   1.85367   1.85625
 Alpha virt. eigenvalues --    1.88968   1.89810   1.90952   1.91299   1.92832
 Alpha virt. eigenvalues --    1.94687   1.95174   1.98131   1.99640   2.00767
 Alpha virt. eigenvalues --    2.02381   2.02760   2.08678   2.11518   2.12240
 Alpha virt. eigenvalues --    2.15771   2.16516   2.19824   2.20469   2.23000
 Alpha virt. eigenvalues --    2.23821   2.24683   2.28424   2.30244   2.30954
 Alpha virt. eigenvalues --    2.30974   2.34702   2.34948   2.37448   2.38533
 Alpha virt. eigenvalues --    2.44008   2.52748   2.60763   2.61669   2.61842
 Alpha virt. eigenvalues --    2.62558   2.64583   2.65964   2.68614   2.69182
 Alpha virt. eigenvalues --    2.69480   2.76889   2.81134   2.81791   2.83165
 Alpha virt. eigenvalues --    2.84730   2.88724   2.91447   2.96752   3.02287
 Alpha virt. eigenvalues --    3.15282   3.34812   3.39201   3.52431   4.07379
 Alpha virt. eigenvalues --    4.09311   4.09964   4.11256   4.12510   4.15177
 Alpha virt. eigenvalues --    4.15955   4.26965   4.29342   4.37498   4.41486
 Alpha virt. eigenvalues --    4.47843   4.63911   4.86810
          Condensed to atoms (all electrons):
              1          2          3          4          5          6
     1  C    4.898908   0.507379  -0.006555  -0.041109  -0.021090   0.508928
     2  C    0.507379   5.099233   0.464105  -0.023792  -0.068581  -0.020053
     3  C   -0.006555   0.464105   4.750994   0.446747  -0.067744  -0.035904
     4  C   -0.041109  -0.023792   0.446747   4.984431   0.469527  -0.001589
     5  C   -0.021090  -0.068581  -0.067744   0.469527   5.131913   0.513709
     6  C    0.508928  -0.020053  -0.035904  -0.001589   0.513709   4.891302
     7  C    0.008301  -0.088731   0.398344  -0.009016   0.015277  -0.000607
     8  C   -0.000633   0.014290   0.002939   0.287669  -0.091821   0.007957
     9  C    0.000038  -0.000514  -0.047557   0.002939   0.011315  -0.000224
    10  C   -0.000406   0.009185   0.011384  -0.072740  -0.001539   0.000073
    11  C    0.000000  -0.000013  -0.000514   0.014290  -0.000094   0.000001
    12  H    0.000000   0.000000   0.000003  -0.000147   0.000002   0.000000
    13  C    0.000000   0.000000   0.000038  -0.000633  -0.000015   0.000000
    14  C    0.000000   0.000001  -0.000224   0.007957   0.000541  -0.000009
    15  C   -0.000015  -0.000094   0.011315  -0.091821  -0.022599   0.000541
    16  H    0.000198  -0.007973  -0.038764   0.004057  -0.000208   0.000015
    17  H    0.356824  -0.036964   0.002536   0.001079   0.004138  -0.040693
    18  H   -0.046008   0.354497  -0.042097   0.004416   0.000503   0.004691
    19  H    0.004498   0.000579   0.004888  -0.029525   0.345350  -0.046877
    20  H   -0.041264   0.004280   0.001080   0.002592  -0.037057   0.357203
    21  H    0.000003  -0.000206   0.002331   0.001023   0.000019   0.000000
    22  H    0.000000   0.000000  -0.000001   0.000015   0.000000   0.000000
    23  H    0.000000   0.000000   0.000002  -0.000201   0.000004   0.000000
    24  H   -0.000002   0.000001  -0.000231  -0.015045   0.005136   0.000294
              7          8          9         10         11         12
     1  C    0.008301  -0.000633   0.000038  -0.000406   0.000000   0.000000
     2  C   -0.088731   0.014290  -0.000514   0.009185  -0.000013   0.000000
     3  C    0.398344   0.002939  -0.047557   0.011384  -0.000514   0.000003
     4  C   -0.009016   0.287669   0.002939  -0.072740   0.014290  -0.000147
     5  C    0.015277  -0.091821   0.011315  -0.001539  -0.000094   0.000002
     6  C   -0.000607   0.007957  -0.000224   0.000073   0.000001   0.000000
     7  C    5.157771  -0.072740   0.011384   0.461884   0.009185   0.000331
     8  C   -0.072740   4.984431   0.446747  -0.009016  -0.023792   0.004416
     9  C    0.011384   0.446747   4.750994   0.398344   0.464105  -0.042097
    10  C    0.461884  -0.009016   0.398344   5.157771  -0.088731  -0.008661
    11  C    0.009185  -0.023792   0.464105  -0.088731   5.099233   0.354497
    12  H    0.000331   0.004416  -0.042097  -0.008661   0.354497   0.601767
    13  C   -0.000406  -0.041109  -0.006555   0.008301   0.507379  -0.046008
    14  C    0.000073  -0.001589  -0.035904  -0.000607  -0.020053   0.004691
    15  C   -0.001539   0.469527  -0.067744   0.015277  -0.068581   0.000503
    16  H    0.351235   0.001023   0.002331  -0.038474  -0.000206  -0.000013
    17  H   -0.000190   0.000015  -0.000001   0.000003   0.000000   0.000000
    18  H   -0.008661  -0.000147   0.000003   0.000331   0.000000   0.000000
    19  H   -0.000182  -0.015045  -0.000231   0.000013   0.000001   0.000000
    20  H    0.000009  -0.000201   0.000002   0.000000   0.000000   0.000000
    21  H   -0.038474   0.004057  -0.038764   0.351235  -0.007973   0.006840
    22  H    0.000003   0.001079   0.002536  -0.000190  -0.036964  -0.005297
    23  H    0.000000   0.002592   0.001080   0.000009   0.004280  -0.000193
    24  H    0.000013  -0.029525   0.004888  -0.000182   0.000579   0.000019
             13         14         15         16         17         18
     1  C    0.000000   0.000000  -0.000015   0.000198   0.356824  -0.046008
     2  C    0.000000   0.000001  -0.000094  -0.007973  -0.036964   0.354497
     3  C    0.000038  -0.000224   0.011315  -0.038764   0.002536  -0.042097
     4  C   -0.000633   0.007957  -0.091821   0.004057   0.001079   0.004416
     5  C   -0.000015   0.000541  -0.022599  -0.000208   0.004138   0.000503
     6  C    0.000000  -0.000009   0.000541   0.000015  -0.040693   0.004691
     7  C   -0.000406   0.000073  -0.001539   0.351235  -0.000190  -0.008661
     8  C   -0.041109  -0.001589   0.469527   0.001023   0.000015  -0.000147
     9  C   -0.006555  -0.035904  -0.067744   0.002331  -0.000001   0.000003
    10  C    0.008301  -0.000607   0.015277  -0.038474   0.000003   0.000331
    11  C    0.507379  -0.020053  -0.068581  -0.000206   0.000000   0.000000
    12  H   -0.046008   0.004691   0.000503  -0.000013   0.000000   0.000000
    13  C    4.898908   0.508928  -0.021090   0.000003   0.000000   0.000000
    14  C    0.508928   4.891302   0.513709   0.000000   0.000000   0.000000
    15  C   -0.021090   0.513709   5.131913   0.000019   0.000000   0.000002
    16  H    0.000003   0.000000   0.000019   0.595066  -0.000013   0.006840
    17  H    0.000000   0.000000   0.000000  -0.000013   0.593652  -0.005297
    18  H    0.000000   0.000000   0.000002   0.006840  -0.005297   0.601767
    19  H   -0.000002   0.000294   0.005136   0.000002  -0.000200   0.000019
    20  H    0.000000   0.000000   0.000004   0.000000  -0.004791  -0.000193
    21  H    0.000198   0.000015  -0.000208  -0.004826   0.000000  -0.000013
    22  H    0.356824  -0.040693   0.004138   0.000000   0.000000   0.000000
    23  H   -0.041264   0.357203  -0.037057   0.000000   0.000000   0.000000
    24  H    0.004498  -0.046877   0.345350   0.000000   0.000000   0.000000
             19         20         21         22         23         24
     1  C    0.004498  -0.041264   0.000003   0.000000   0.000000  -0.000002
     2  C    0.000579   0.004280  -0.000206   0.000000   0.000000   0.000001
     3  C    0.004888   0.001080   0.002331  -0.000001   0.000002  -0.000231
     4  C   -0.029525   0.002592   0.001023   0.000015  -0.000201  -0.015045
     5  C    0.345350  -0.037057   0.000019   0.000000   0.000004   0.005136
     6  C   -0.046877   0.357203   0.000000   0.000000   0.000000   0.000294
     7  C   -0.000182   0.000009  -0.038474   0.000003   0.000000   0.000013
     8  C   -0.015045  -0.000201   0.004057   0.001079   0.002592  -0.029525
     9  C   -0.000231   0.000002  -0.038764   0.002536   0.001080   0.004888
    10  C    0.000013   0.000000   0.351235  -0.000190   0.000009  -0.000182
    11  C    0.000001   0.000000  -0.007973  -0.036964   0.004280   0.000579
    12  H    0.000000   0.000000   0.006840  -0.005297  -0.000193   0.000019
    13  C   -0.000002   0.000000   0.000198   0.356824  -0.041264   0.004498
    14  C    0.000294   0.000000   0.000015  -0.040693   0.357203  -0.046877
    15  C    0.005136   0.000004  -0.000208   0.004138  -0.037057   0.345350
    16  H    0.000002   0.000000  -0.004826   0.000000   0.000000   0.000000
    17  H   -0.000200  -0.004791   0.000000   0.000000   0.000000   0.000000
    18  H    0.000019  -0.000193  -0.000013   0.000000   0.000000   0.000000
    19  H    0.597545  -0.005320   0.000000   0.000000   0.000001   0.005812
    20  H   -0.005320   0.594264   0.000000   0.000000   0.000000   0.000001
    21  H    0.000000   0.000000   0.595066  -0.000013   0.000000   0.000002
    22  H    0.000000   0.000000  -0.000013   0.593652  -0.004791  -0.000200
    23  H    0.000001   0.000000   0.000000  -0.004791   0.594264  -0.005320
    24  H    0.005812   0.000001   0.000002  -0.000200  -0.005320   0.597545
 Mulliken atomic charges:
              1
     1  C   -0.127994
     2  C   -0.206629
     3  C    0.142884
     4  C    0.058877
     5  C   -0.186686
     6  C   -0.138757
     7  C   -0.193263
     8  C    0.058877
     9  C    0.142884
    10  C   -0.193263
    11  C   -0.206629
    12  H    0.129347
    13  C   -0.127994
    14  C   -0.138757
    15  C   -0.186686
    16  H    0.129689
    17  H    0.129900
    18  H    0.129347
    19  H    0.133242
    20  H    0.129390
    21  H    0.129689
    22  H    0.129900
    23  H    0.129390
    24  H    0.133242
 Sum of Mulliken charges=   0.00000
 Atomic charges with hydrogens summed into heavy atoms:
              1
     1  C    0.001906
     2  C   -0.077282
     3  C    0.142884
     4  C    0.058877
     5  C   -0.053444
     6  C   -0.009367
     7  C   -0.063574
     8  C    0.058877
     9  C    0.142884
    10  C   -0.063574
    11  C   -0.077282
    12  H    0.000000
    13  C    0.001906
    14  C   -0.009367
    15  C   -0.053444
    16  H    0.000000
    17  H    0.000000
    18  H    0.000000
    19  H    0.000000
    20  H    0.000000
    21  H    0.000000
    22  H    0.000000
    23  H    0.000000
    24  H    0.000000
 Sum of Mulliken charges=   0.00000
 Electronic spatial extent (au):  <R**2>=  2623.6772
 Charge=     0.0000 electrons
 Dipole moment (field-independent basis, Debye):
    X=     0.0000    Y=     0.0000    Z=    -0.0412  Tot=     0.0412
 Quadrupole moment (field-independent basis, Debye-Ang):
   XX=   -85.7579   YY=   -69.8441   ZZ=   -70.3382
   XY=     0.0000   XZ=     0.0000   YZ=     0.0000
 Traceless Quadrupole moment (field-independent basis, Debye-Ang):
   XX=   -10.4445   YY=     5.4693   ZZ=     4.9752
   XY=     0.0000   XZ=     0.0000   YZ=     0.0000
 Octapole moment (field-independent basis, Debye-Ang**2):
  XXX=     0.0000  YYY=     0.0000  ZZZ=    -0.7061  XYY=     0.0000
  XXY=     0.0000  XXZ=     0.0896  XZZ=     0.0000  YZZ=     0.0000
  YYZ=    -0.8166  XYZ=     0.0000
 Hexadecapole moment (field-independent basis, Debye-Ang**3):
 XXXX=   -89.0024 YYYY= -2330.1091 ZZZZ=  -883.0954 XXXY=     0.0000
 XXXZ=     0.0000 YYYX=     0.0000 YYYZ=     0.0000 ZZZX=     0.0000
 ZZZY=     0.0000 XXYY=  -489.2354 XXZZ=  -191.7296 YYZZ=  -533.7062
 XXYZ=     0.0000 YYXZ=     0.0000 ZZXY=     0.0000
 N-N= 7.744086783165D+02 E-N=-2.797754054112D+03  KE= 5.342661104843D+02
 Symmetry A1   KE= 2.619899713624D+02
 Symmetry A2   KE= 6.534058084598D+00
 Symmetry B1   KE= 8.372703402913D+00
 Symmetry B2   KE= 2.573693776343D+02
 No NMR shielding tensors so no spin-rotation constants.
 Leave Link  601 at Thu Nov 29 03:15:48 2012, MaxMem=  196608000 cpu:       1.0
 (Enter d:\study\G03W\l607.exe)
 ******************************Gaussian NBO Version 3.1******************************
             N A T U R A L   A T O M I C   O R B I T A L   A N D
          N A T U R A L   B O N D   O R B I T A L   A N A L Y S I S
 ******************************Gaussian NBO Version 3.1******************************

       /RESON  / : Allow strongly delocalized NBO set
       /NAOMO  / : Print all MOs in the NAO basis

 Analyzing the SCF density

 Job title: b3lyp/6-31g* opted                                              

 Storage needed:    266226 in NPA,    212881 in NBO ( 196606278 available)


 NATURAL POPULATIONS:  Natural atomic orbital occupancies 
                                                          
   NAO  Atom  No  lang   Type(AO)    Occupancy      Energy
 ----------------------------------------------------------
     1    C    1  S      Cor( 1S)     1.99909     -10.04157
     2    C    1  S      Val( 2S)     0.95986      -0.16450
     3    C    1  S      Ryd( 3S)     0.00055       1.32377
     4    C    1  S      Ryd( 4S)     0.00003       3.90528
     5    C    1  px     Val( 2p)     0.99856      -0.09908
     6    C    1  px     Ryd( 3p)     0.00073       0.62493
     7    C    1  py     Val( 2p)     1.19825      -0.05075
     8    C    1  py     Ryd( 3p)     0.00516       1.13846
     9    C    1  pz     Val( 2p)     1.06274      -0.03104
    10    C    1  pz     Ryd( 3p)     0.00452       0.69281
    11    C    1  dxy    Ryd( 3d)     0.00033       1.80282
    12    C    1  dxz    Ryd( 3d)     0.00055       1.94961
    13    C    1  dyz    Ryd( 3d)     0.00062       2.40227
    14    C    1  dx2y2  Ryd( 3d)     0.00069       2.22135
    15    C    1  dz2    Ryd( 3d)     0.00062       2.45223

    16    C    2  S      Cor( 1S)     1.99906     -10.03877
    17    C    2  S      Val( 2S)     0.94822      -0.15540
    18    C    2  S      Ryd( 3S)     0.00063       1.30050
    19    C    2  S      Ryd( 4S)     0.00005       3.93520
    20    C    2  px     Val( 2p)     0.99646      -0.09974
    21    C    2  px     Ryd( 3p)     0.00059       0.62724
    22    C    2  py     Val( 2p)     1.07802      -0.02897
    23    C    2  py     Ryd( 3p)     0.00412       0.80303
    24    C    2  pz     Val( 2p)     1.17282      -0.05071
    25    C    2  pz     Ryd( 3p)     0.00480       1.09663
    26    C    2  dxy    Ryd( 3d)     0.00044       1.92433
    27    C    2  dxz    Ryd( 3d)     0.00041       1.84001
    28    C    2  dyz    Ryd( 3d)     0.00076       2.44203
    29    C    2  dx2y2  Ryd( 3d)     0.00043       2.39179
    30    C    2  dz2    Ryd( 3d)     0.00073       2.32253

    31    C    3  S      Cor( 1S)     1.99902     -10.04084
    32    C    3  S      Val( 2S)     0.86782      -0.11823
    33    C    3  S      Ryd( 3S)     0.00045       1.09976
    34    C    3  S      Ryd( 4S)     0.00007       4.18511
    35    C    3  px     Val( 2p)     1.00006      -0.09313
    36    C    3  px     Ryd( 3p)     0.00037       0.71336
    37    C    3  py     Val( 2p)     1.09282      -0.04245
    38    C    3  py     Ryd( 3p)     0.00500       1.24564
    39    C    3  pz     Val( 2p)     1.08292      -0.03729
    40    C    3  pz     Ryd( 3p)     0.00514       1.20152
    41    C    3  dxy    Ryd( 3d)     0.00059       1.92363
    42    C    3  dxz    Ryd( 3d)     0.00051       1.92389
    43    C    3  dyz    Ryd( 3d)     0.00073       2.53068
    44    C    3  dx2y2  Ryd( 3d)     0.00042       2.40992
    45    C    3  dz2    Ryd( 3d)     0.00060       2.48644

    46    C    4  S      Cor( 1S)     1.99900     -10.04321
    47    C    4  S      Val( 2S)     0.85908      -0.11153
    48    C    4  S      Ryd( 3S)     0.00043       1.15132
    49    C    4  S      Ryd( 4S)     0.00007       4.15246
    50    C    4  px     Val( 2p)     0.99986      -0.09363
    51    C    4  px     Ryd( 3p)     0.00047       0.72197
    52    C    4  py     Val( 2p)     1.07287      -0.03031
    53    C    4  py     Ryd( 3p)     0.00471       1.29673
    54    C    4  pz     Val( 2p)     1.08814      -0.03820
    55    C    4  pz     Ryd( 3p)     0.00520       1.26150
    56    C    4  dxy    Ryd( 3d)     0.00056       1.92117
    57    C    4  dxz    Ryd( 3d)     0.00049       1.92364
    58    C    4  dyz    Ryd( 3d)     0.00069       2.53470
    59    C    4  dx2y2  Ryd( 3d)     0.00044       2.46230
    60    C    4  dz2    Ryd( 3d)     0.00060       2.47278

    61    C    5  S      Cor( 1S)     1.99907     -10.03900
    62    C    5  S      Val( 2S)     0.94386      -0.15322
    63    C    5  S      Ryd( 3S)     0.00062       1.25726
    64    C    5  S      Ryd( 4S)     0.00005       3.97951
    65    C    5  px     Val( 2p)     0.99714      -0.10035
    66    C    5  px     Ryd( 3p)     0.00047       0.63296
    67    C    5  py     Val( 2p)     1.09639      -0.03843
    68    C    5  py     Ryd( 3p)     0.00366       0.90379
    69    C    5  pz     Val( 2p)     1.15833      -0.04014
    70    C    5  pz     Ryd( 3p)     0.00472       1.07555
    71    C    5  dxy    Ryd( 3d)     0.00054       1.92230
    72    C    5  dxz    Ryd( 3d)     0.00031       1.84529
    73    C    5  dyz    Ryd( 3d)     0.00083       2.40948
    74    C    5  dx2y2  Ryd( 3d)     0.00039       2.41973
    75    C    5  dz2    Ryd( 3d)     0.00068       2.38783

    76    C    6  S      Cor( 1S)     1.99910     -10.04224
    77    C    6  S      Val( 2S)     0.95956      -0.16487
    78    C    6  S      Ryd( 3S)     0.00060       1.32152
    79    C    6  S      Ryd( 4S)     0.00003       3.91166
    80    C    6  px     Val( 2p)     0.99946      -0.09933
    81    C    6  px     Ryd( 3p)     0.00073       0.62583
    82    C    6  py     Val( 2p)     1.10041      -0.03509
    83    C    6  py     Ryd( 3p)     0.00467       0.80905
    84    C    6  pz     Val( 2p)     1.15778      -0.04604
    85    C    6  pz     Ryd( 3p)     0.00506       1.03046
    86    C    6  dxy    Ryd( 3d)     0.00052       1.91622
    87    C    6  dxz    Ryd( 3d)     0.00036       1.83478
    88    C    6  dyz    Ryd( 3d)     0.00083       2.38262
    89    C    6  dx2y2  Ryd( 3d)     0.00042       2.37291
    90    C    6  dz2    Ryd( 3d)     0.00069       2.31696

    91    C    7  S      Cor( 1S)     1.99905     -10.03832
    92    C    7  S      Val( 2S)     0.94612      -0.15331
    93    C    7  S      Ryd( 3S)     0.00068       1.34415
    94    C    7  S      Ryd( 4S)     0.00004       3.91466
    95    C    7  px     Val( 2p)     0.99789      -0.10015
    96    C    7  px     Ryd( 3p)     0.00068       0.62814
    97    C    7  py     Val( 2p)     1.10577      -0.03711
    98    C    7  py     Ryd( 3p)     0.00423       0.87108
    99    C    7  pz     Val( 2p)     1.14475      -0.04221
   100    C    7  pz     Ryd( 3p)     0.00478       1.04011
   101    C    7  dxy    Ryd( 3d)     0.00065       1.92834
   102    C    7  dxz    Ryd( 3d)     0.00027       1.83784
   103    C    7  dyz    Ryd( 3d)     0.00086       2.39205
   104    C    7  dx2y2  Ryd( 3d)     0.00040       2.44023
   105    C    7  dz2    Ryd( 3d)     0.00066       2.35049

   106    C    8  S      Cor( 1S)     1.99900     -10.04321
   107    C    8  S      Val( 2S)     0.85908      -0.11153
   108    C    8  S      Ryd( 3S)     0.00043       1.15132
   109    C    8  S      Ryd( 4S)     0.00007       4.15246
   110    C    8  px     Val( 2p)     0.99986      -0.09363
   111    C    8  px     Ryd( 3p)     0.00047       0.72197
   112    C    8  py     Val( 2p)     1.07287      -0.03031
   113    C    8  py     Ryd( 3p)     0.00471       1.29673
   114    C    8  pz     Val( 2p)     1.08814      -0.03820
   115    C    8  pz     Ryd( 3p)     0.00520       1.26150
   116    C    8  dxy    Ryd( 3d)     0.00056       1.92117
   117    C    8  dxz    Ryd( 3d)     0.00049       1.92364
   118    C    8  dyz    Ryd( 3d)     0.00069       2.53470
   119    C    8  dx2y2  Ryd( 3d)     0.00044       2.46230
   120    C    8  dz2    Ryd( 3d)     0.00060       2.47278

   121    C    9  S      Cor( 1S)     1.99902     -10.04084
   122    C    9  S      Val( 2S)     0.86782      -0.11823
   123    C    9  S      Ryd( 3S)     0.00045       1.09976
   124    C    9  S      Ryd( 4S)     0.00007       4.18511
   125    C    9  px     Val( 2p)     1.00006      -0.09313
   126    C    9  px     Ryd( 3p)     0.00037       0.71336
   127    C    9  py     Val( 2p)     1.09282      -0.04245
   128    C    9  py     Ryd( 3p)     0.00500       1.24564
   129    C    9  pz     Val( 2p)     1.08292      -0.03729
   130    C    9  pz     Ryd( 3p)     0.00514       1.20152
   131    C    9  dxy    Ryd( 3d)     0.00059       1.92363
   132    C    9  dxz    Ryd( 3d)     0.00051       1.92389
   133    C    9  dyz    Ryd( 3d)     0.00073       2.53068
   134    C    9  dx2y2  Ryd( 3d)     0.00042       2.40992
   135    C    9  dz2    Ryd( 3d)     0.00060       2.48644

   136    C   10  S      Cor( 1S)     1.99905     -10.03832
   137    C   10  S      Val( 2S)     0.94612      -0.15331
   138    C   10  S      Ryd( 3S)     0.00068       1.34415
   139    C   10  S      Ryd( 4S)     0.00004       3.91466
   140    C   10  px     Val( 2p)     0.99789      -0.10015
   141    C   10  px     Ryd( 3p)     0.00068       0.62814
   142    C   10  py     Val( 2p)     1.10577      -0.03711
   143    C   10  py     Ryd( 3p)     0.00423       0.87108
   144    C   10  pz     Val( 2p)     1.14475      -0.04221
   145    C   10  pz     Ryd( 3p)     0.00478       1.04011
   146    C   10  dxy    Ryd( 3d)     0.00065       1.92834
   147    C   10  dxz    Ryd( 3d)     0.00027       1.83784
   148    C   10  dyz    Ryd( 3d)     0.00086       2.39205
   149    C   10  dx2y2  Ryd( 3d)     0.00040       2.44023
   150    C   10  dz2    Ryd( 3d)     0.00066       2.35049

   151    C   11  S      Cor( 1S)     1.99906     -10.03877
   152    C   11  S      Val( 2S)     0.94822      -0.15540
   153    C   11  S      Ryd( 3S)     0.00063       1.30050
   154    C   11  S      Ryd( 4S)     0.00005       3.93520
   155    C   11  px     Val( 2p)     0.99646      -0.09974
   156    C   11  px     Ryd( 3p)     0.00059       0.62724
   157    C   11  py     Val( 2p)     1.07802      -0.02897
   158    C   11  py     Ryd( 3p)     0.00412       0.80303
   159    C   11  pz     Val( 2p)     1.17282      -0.05071
   160    C   11  pz     Ryd( 3p)     0.00480       1.09663
   161    C   11  dxy    Ryd( 3d)     0.00044       1.92433
   162    C   11  dxz    Ryd( 3d)     0.00041       1.84001
   163    C   11  dyz    Ryd( 3d)     0.00076       2.44203
   164    C   11  dx2y2  Ryd( 3d)     0.00043       2.39179
   165    C   11  dz2    Ryd( 3d)     0.00073       2.32253

   166    H   12  S      Val( 1S)     0.76537       0.09106
   167    H   12  S      Ryd( 2S)     0.00109       0.57640

   168    C   13  S      Cor( 1S)     1.99909     -10.04157
   169    C   13  S      Val( 2S)     0.95986      -0.16450
   170    C   13  S      Ryd( 3S)     0.00055       1.32377
   171    C   13  S      Ryd( 4S)     0.00003       3.90528
   172    C   13  px     Val( 2p)     0.99856      -0.09908
   173    C   13  px     Ryd( 3p)     0.00073       0.62493
   174    C   13  py     Val( 2p)     1.19825      -0.05075
   175    C   13  py     Ryd( 3p)     0.00516       1.13846
   176    C   13  pz     Val( 2p)     1.06274      -0.03104
   177    C   13  pz     Ryd( 3p)     0.00452       0.69281
   178    C   13  dxy    Ryd( 3d)     0.00033       1.80282
   179    C   13  dxz    Ryd( 3d)     0.00055       1.94961
   180    C   13  dyz    Ryd( 3d)     0.00062       2.40227
   181    C   13  dx2y2  Ryd( 3d)     0.00069       2.22135
   182    C   13  dz2    Ryd( 3d)     0.00062       2.45223

   183    C   14  S      Cor( 1S)     1.99910     -10.04224
   184    C   14  S      Val( 2S)     0.95956      -0.16487
   185    C   14  S      Ryd( 3S)     0.00060       1.32152
   186    C   14  S      Ryd( 4S)     0.00003       3.91166
   187    C   14  px     Val( 2p)     0.99946      -0.09933
   188    C   14  px     Ryd( 3p)     0.00073       0.62583
   189    C   14  py     Val( 2p)     1.10041      -0.03509
   190    C   14  py     Ryd( 3p)     0.00467       0.80905
   191    C   14  pz     Val( 2p)     1.15778      -0.04604
   192    C   14  pz     Ryd( 3p)     0.00506       1.03046
   193    C   14  dxy    Ryd( 3d)     0.00052       1.91622
   194    C   14  dxz    Ryd( 3d)     0.00036       1.83478
   195    C   14  dyz    Ryd( 3d)     0.00083       2.38262
   196    C   14  dx2y2  Ryd( 3d)     0.00042       2.37291
   197    C   14  dz2    Ryd( 3d)     0.00069       2.31696

   198    C   15  S      Cor( 1S)     1.99907     -10.03900
   199    C   15  S      Val( 2S)     0.94386      -0.15322
   200    C   15  S      Ryd( 3S)     0.00062       1.25726
   201    C   15  S      Ryd( 4S)     0.00005       3.97951
   202    C   15  px     Val( 2p)     0.99714      -0.10035
   203    C   15  px     Ryd( 3p)     0.00047       0.63296
   204    C   15  py     Val( 2p)     1.09639      -0.03843
   205    C   15  py     Ryd( 3p)     0.00366       0.90379
   206    C   15  pz     Val( 2p)     1.15833      -0.04014
   207    C   15  pz     Ryd( 3p)     0.00472       1.07555
   208    C   15  dxy    Ryd( 3d)     0.00054       1.92230
   209    C   15  dxz    Ryd( 3d)     0.00031       1.84529
   210    C   15  dyz    Ryd( 3d)     0.00083       2.40948
   211    C   15  dx2y2  Ryd( 3d)     0.00039       2.41973
   212    C   15  dz2    Ryd( 3d)     0.00068       2.38783

   213    H   16  S      Val( 1S)     0.76387       0.09117
   214    H   16  S      Ryd( 2S)     0.00104       0.57506

   215    H   17  S      Val( 1S)     0.76176       0.09627
   216    H   17  S      Ryd( 2S)     0.00081       0.56478

   217    H   18  S      Val( 1S)     0.76537       0.09106
   218    H   18  S      Ryd( 2S)     0.00109       0.57640

   219    H   19  S      Val( 1S)     0.76892       0.09367
   220    H   19  S      Ryd( 2S)     0.00097       0.64594

   221    H   20  S      Val( 1S)     0.76230       0.09614
   222    H   20  S      Ryd( 2S)     0.00081       0.56552

   223    H   21  S      Val( 1S)     0.76387       0.09117
   224    H   21  S      Ryd( 2S)     0.00104       0.57506

   225    H   22  S      Val( 1S)     0.76176       0.09627
   226    H   22  S      Ryd( 2S)     0.00081       0.56478

   227    H   23  S      Val( 1S)     0.76230       0.09614
   228    H   23  S      Ryd( 2S)     0.00081       0.56552

   229    H   24  S      Val( 1S)     0.76892       0.09367
   230    H   24  S      Ryd( 2S)     0.00097       0.64594


 Summary of Natural Population Analysis:                  
                                                          
                                       Natural Population 
                Natural  -----------------------------------------------
    Atom  No    Charge         Core      Valence    Rydberg      Total
 -----------------------------------------------------------------------
      C    1   -0.23229      1.99909     4.21940    0.01380     6.23229
      C    2   -0.20754      1.99906     4.19552    0.01296     6.20754
      C    3   -0.05652      1.99902     4.04362    0.01389     6.05652
      C    4   -0.03261      1.99900     4.01995    0.01366     6.03261
      C    5   -0.20707      1.99907     4.19572    0.01228     6.20707
      C    6   -0.23021      1.99910     4.21721    0.01390     6.23021
      C    7   -0.20683      1.99905     4.19453    0.01325     6.20683
      C    8   -0.03261      1.99900     4.01995    0.01366     6.03261
      C    9   -0.05652      1.99902     4.04362    0.01389     6.05652
      C   10   -0.20683      1.99905     4.19453    0.01325     6.20683
      C   11   -0.20754      1.99906     4.19552    0.01296     6.20754
      H   12    0.23354      0.00000     0.76537    0.00109     0.76646
      C   13   -0.23229      1.99909     4.21940    0.01380     6.23229
      C   14   -0.23021      1.99910     4.21721    0.01390     6.23021
      C   15   -0.20707      1.99907     4.19572    0.01228     6.20707
      H   16    0.23508      0.00000     0.76387    0.00104     0.76492
      H   17    0.23743      0.00000     0.76176    0.00081     0.76257
      H   18    0.23354      0.00000     0.76537    0.00109     0.76646
      H   19    0.23011      0.00000     0.76892    0.00097     0.76989
      H   20    0.23689      0.00000     0.76230    0.00081     0.76311
      H   21    0.23508      0.00000     0.76387    0.00104     0.76492
      H   22    0.23743      0.00000     0.76176    0.00081     0.76257
      H   23    0.23689      0.00000     0.76230    0.00081     0.76311
      H   24    0.23011      0.00000     0.76892    0.00097     0.76989
 =======================================================================
   * Total *    0.00000     27.98677    65.81633    0.19689    94.00000

                                 Natural Population      
 --------------------------------------------------------
   Core                      27.98677 ( 99.9528% of  28)
   Valence                   65.81633 ( 99.7217% of  66)
   Natural Minimal Basis     93.80311 ( 99.7905% of  94)
   Natural Rydberg Basis      0.19689 (  0.2095% of  94)
 --------------------------------------------------------

    Atom  No          Natural Electron Configuration
 ----------------------------------------------------------------------------
      C    1      [core]2S( 0.96)2p( 3.26)3p( 0.01)
      C    2      [core]2S( 0.95)2p( 3.25)3p( 0.01)
      C    3      [core]2S( 0.87)2p( 3.18)3p( 0.01)
      C    4      [core]2S( 0.86)2p( 3.16)3p( 0.01)
      C    5      [core]2S( 0.94)2p( 3.25)3p( 0.01)
      C    6      [core]2S( 0.96)2p( 3.26)3p( 0.01)
      C    7      [core]2S( 0.95)2p( 3.25)3p( 0.01)
      C    8      [core]2S( 0.86)2p( 3.16)3p( 0.01)
      C    9      [core]2S( 0.87)2p( 3.18)3p( 0.01)
      C   10      [core]2S( 0.95)2p( 3.25)3p( 0.01)
      C   11      [core]2S( 0.95)2p( 3.25)3p( 0.01)
      H   12            1S( 0.77)
      C   13      [core]2S( 0.96)2p( 3.26)3p( 0.01)
      C   14      [core]2S( 0.96)2p( 3.26)3p( 0.01)
      C   15      [core]2S( 0.94)2p( 3.25)3p( 0.01)
      H   16            1S( 0.76)
      H   17            1S( 0.76)
      H   18            1S( 0.77)
      H   19            1S( 0.77)
      H   20            1S( 0.76)
      H   21            1S( 0.76)
      H   22            1S( 0.76)
      H   23            1S( 0.76)
      H   24            1S( 0.77)


 MOs in the NAO basis:                                                         

          NAO        1       2       3       4       5       6       7       8
      ---------- ------- ------- ------- ------- ------- ------- ------- -------
   1.  C 1 (S)   -0.0001  0.0000  0.0009  0.0009  0.3233  0.3240 -0.0039  0.4896
   2.  C 1 (S)    0.0010  0.0006  0.0025  0.0025  0.0460  0.0462  0.0002  0.0446
   3.  C 1 (S)    0.0002  0.0001  0.0005  0.0005  0.0033  0.0033  0.0001  0.0004
   4.  C 1 (S)    0.0000  0.0000  0.0000  0.0000  0.0003  0.0003  0.0000  0.0001
   5.  C 1 (px)   0.0000  0.0000  0.0000  0.0000  0.0000  0.0000  0.0000  0.0000
   6.  C 1 (px)   0.0000  0.0000  0.0000  0.0000  0.0000  0.0000  0.0000  0.0000
   7.  C 1 (py)  -0.0009  0.0001 -0.0018 -0.0019 -0.0159 -0.0160 -0.0008 -0.0020
   8.  C 1 (py)   0.0002  0.0000  0.0005  0.0005  0.0033  0.0033  0.0002  0.0003
   9.  C 1 (pz)   0.0002  0.0002  0.0043  0.0043 -0.0211 -0.0211 -0.0004  0.0264
  10.  C 1 (pz)   0.0000  0.0000 -0.0009 -0.0009  0.0045  0.0045  0.0001 -0.0057
  11.  C 1 (d1)   0.0000  0.0000  0.0000  0.0000  0.0000  0.0000  0.0000  0.0000
  12.  C 1 (d2)   0.0000  0.0000  0.0000  0.0000  0.0000  0.0000  0.0000  0.0000
  13.  C 1 (d3)   0.0000  0.0000  0.0000  0.0000  0.0000  0.0000  0.0000  0.0000
  14.  C 1 (d4)   0.0000  0.0000  0.0000  0.0000  0.0000  0.0000  0.0000  0.0000
  15.  C 1 (d5)   0.0000  0.0000  0.0000  0.0000  0.0000  0.0000  0.0000  0.0000
  16.  C 2 (S)    0.0010  0.0013  0.0205  0.0205  0.1114  0.1116 -0.0100  0.3383
  17.  C 2 (S)    0.0037  0.0031  0.0194  0.0195  0.0202  0.0205  0.0008  0.0415
  18.  C 2 (S)    0.0007  0.0005  0.0031  0.0032  0.0019  0.0019  0.0003  0.0022
  19.  C 2 (S)    0.0000  0.0000  0.0001  0.0001  0.0000  0.0000  0.0000  0.0001
  20.  C 2 (px)   0.0000  0.0000  0.0000  0.0000  0.0000  0.0000  0.0000  0.0000
  21.  C 2 (px)   0.0000  0.0000  0.0000  0.0000  0.0000  0.0000  0.0000  0.0000
  22.  C 2 (py)  -0.0064 -0.0055 -0.0341 -0.0343  0.0115  0.0113 -0.0030  0.0141
  23.  C 2 (py)   0.0014  0.0012  0.0072  0.0072 -0.0024 -0.0024  0.0007 -0.0031
  24.  C 2 (pz)   0.0002  0.0011 -0.0005 -0.0004 -0.0168 -0.0168  0.0002 -0.0202
  25.  C 2 (pz)   0.0000 -0.0001  0.0000  0.0000  0.0036  0.0036 -0.0002  0.0041
  26.  C 2 (d1)   0.0000  0.0000  0.0000  0.0000  0.0000  0.0000  0.0000  0.0000
  27.  C 2 (d2)   0.0000  0.0000  0.0000  0.0000  0.0000  0.0000  0.0000  0.0000
  28.  C 2 (d3)   0.0000  0.0000  0.0000  0.0000  0.0000  0.0000  0.0000  0.0000
  29.  C 2 (d4)   0.0000  0.0000  0.0001  0.0001  0.0000  0.0000  0.0000  0.0000
  30.  C 2 (d5)   0.0000  0.0000  0.0000  0.0000  0.0000  0.0000  0.0000  0.0000
  31.  C 3 (S)    0.0498  0.0567  0.6982  0.6988 -0.0037 -0.0037 -0.0224 -0.0126
  32.  C 3 (S)    0.0231  0.0205  0.0575  0.0587  0.0041  0.0047  0.0170  0.0083
  33.  C 3 (S)    0.0038  0.0031 -0.0002  0.0000  0.0008  0.0010  0.0037  0.0019
  34.  C 3 (S)   -0.0007 -0.0006  0.0000  0.0000 -0.0002 -0.0002 -0.0007 -0.0004
  35.  C 3 (px)   0.0000  0.0000  0.0000  0.0000  0.0000  0.0000  0.0000  0.0000
  36.  C 3 (px)   0.0000  0.0000  0.0000  0.0000  0.0000  0.0000  0.0000  0.0000
  37.  C 3 (py)  -0.0185 -0.0162  0.0022  0.0017  0.0078  0.0069 -0.0205  0.0215
  38.  C 3 (py)   0.0045  0.0037 -0.0006 -0.0004 -0.0019 -0.0017  0.0049 -0.0050
  39.  C 3 (pz)  -0.0340 -0.0282  0.0034  0.0038 -0.0005 -0.0011  0.0345  0.0013
  40.  C 3 (pz)   0.0080  0.0066 -0.0008 -0.0010  0.0002  0.0004 -0.0080 -0.0002
  41.  C 3 (d1)   0.0000  0.0000  0.0000  0.0000  0.0000  0.0000  0.0000  0.0000
  42.  C 3 (d2)   0.0000  0.0000  0.0000  0.0000  0.0000  0.0000  0.0000  0.0000
  43.  C 3 (d3)   0.0000  0.0000  0.0000  0.0000  0.0000  0.0000  0.0000  0.0000
  44.  C 3 (d4)   0.0000  0.0000 -0.0001 -0.0001  0.0000  0.0000  0.0000  0.0000
  45.  C 3 (d5)   0.0000  0.0000  0.0000  0.0000  0.0000  0.0000 -0.0001  0.0000
  46.  C 4 (S)    0.6973  0.7001 -0.0606 -0.0532 -0.0070 -0.0067  0.0007  0.0088
  47.  C 4 (S)    0.0759  0.0439  0.0121  0.0135  0.0071  0.0089  0.0020 -0.0060
  48.  C 4 (S)    0.0035 -0.0029  0.0034  0.0036  0.0015  0.0019  0.0004 -0.0014
  49.  C 4 (S)   -0.0006  0.0005 -0.0005 -0.0006 -0.0003 -0.0004 -0.0001  0.0002
  50.  C 4 (px)   0.0000  0.0000  0.0000  0.0000  0.0000  0.0000  0.0000  0.0000
  51.  C 4 (px)   0.0000  0.0000  0.0000  0.0000  0.0000  0.0000  0.0000  0.0000
  52.  C 4 (py)  -0.0330  0.0360  0.0177  0.0167  0.0104  0.0071  0.0017 -0.0093
  53.  C 4 (py)   0.0076 -0.0083 -0.0042 -0.0038 -0.0026 -0.0018 -0.0003  0.0021
  54.  C 4 (pz)   0.0013  0.0017  0.0320  0.0309 -0.0136 -0.0137  0.0016  0.0153
  55.  C 4 (pz)  -0.0002 -0.0004 -0.0073 -0.0073  0.0031  0.0032 -0.0005 -0.0034
  56.  C 4 (d1)   0.0000  0.0000  0.0000  0.0000  0.0000  0.0000  0.0000  0.0000
  57.  C 4 (d2)   0.0000  0.0000  0.0000  0.0000  0.0000  0.0000  0.0000  0.0000
  58.  C 4 (d3)   0.0000  0.0000  0.0000  0.0000  0.0000  0.0000  0.0000  0.0000
  59.  C 4 (d4)   0.0000 -0.0001  0.0000  0.0000  0.0000  0.0000  0.0000  0.0000
  60.  C 4 (d5)   0.0001  0.0000  0.0000  0.0000  0.0000  0.0000  0.0000  0.0000
  61.  C 5 (S)    0.0145  0.0150 -0.0017 -0.0016  0.2513  0.2503  0.0048 -0.2961
  62.  C 5 (S)    0.0208  0.0175 -0.0001  0.0007  0.0376  0.0380  0.0011 -0.0295
  63.  C 5 (S)    0.0035  0.0029  0.0000  0.0002  0.0028  0.0029  0.0001 -0.0007
  64.  C 5 (S)    0.0000  0.0000  0.0000  0.0000  0.0000  0.0000  0.0000 -0.0001
  65.  C 5 (px)   0.0000  0.0000  0.0000  0.0000  0.0000  0.0000  0.0000  0.0000
  66.  C 5 (px)   0.0000  0.0000  0.0000  0.0000  0.0000  0.0000  0.0000  0.0000
  67.  C 5 (py)  -0.0198 -0.0182  0.0001 -0.0017  0.0316  0.0306  0.0005 -0.0089
  68.  C 5 (py)   0.0043  0.0037 -0.0001  0.0003 -0.0066 -0.0064 -0.0001  0.0018
  69.  C 5 (pz)   0.0318  0.0263  0.0001  0.0005 -0.0006 -0.0003  0.0009  0.0006
  70.  C 5 (pz)  -0.0066 -0.0055 -0.0001 -0.0002  0.0002  0.0001 -0.0002 -0.0003
  71.  C 5 (d1)   0.0000  0.0000  0.0000  0.0000  0.0000  0.0000  0.0000  0.0000
  72.  C 5 (d2)   0.0000  0.0000  0.0000  0.0000  0.0000  0.0000  0.0000  0.0000
  73.  C 5 (d3)   0.0000  0.0000  0.0000  0.0000  0.0000  0.0000  0.0000  0.0000
  74.  C 5 (d4)   0.0000  0.0000  0.0000  0.0000  0.0000  0.0000  0.0000  0.0000
  75.  C 5 (d5)   0.0000 -0.0001  0.0000  0.0000  0.0000  0.0000  0.0000  0.0000
  76.  C 6 (S)    0.0004  0.0005 -0.0003 -0.0003  0.5551  0.5552  0.0073 -0.2204
  77.  C 6 (S)    0.0028  0.0020  0.0003  0.0006  0.0631  0.0632  0.0009 -0.0132
  78.  C 6 (S)    0.0005  0.0004  0.0001  0.0001  0.0027  0.0028  0.0001  0.0011
  79.  C 6 (S)    0.0000  0.0000  0.0000  0.0000  0.0002  0.0002  0.0000  0.0001
  80.  C 6 (px)   0.0000  0.0000  0.0000  0.0000  0.0000  0.0000  0.0000  0.0000
  81.  C 6 (px)   0.0000  0.0000  0.0000  0.0000  0.0000  0.0000  0.0000  0.0000
  82.  C 6 (py)  -0.0049 -0.0036  0.0004  0.0002 -0.0037 -0.0038 -0.0007  0.0284
  83.  C 6 (py)   0.0011  0.0008 -0.0001  0.0000  0.0007  0.0007  0.0001 -0.0061
  84.  C 6 (pz)  -0.0003 -0.0012  0.0005  0.0004  0.0131  0.0132  0.0003  0.0241
  85.  C 6 (pz)   0.0000  0.0002 -0.0001 -0.0001 -0.0027 -0.0027 -0.0001 -0.0053
  86.  C 6 (d1)   0.0000  0.0000  0.0000  0.0000  0.0000  0.0000  0.0000  0.0000
  87.  C 6 (d2)   0.0000  0.0000  0.0000  0.0000  0.0000  0.0000  0.0000  0.0000
  88.  C 6 (d3)   0.0000  0.0000  0.0000  0.0000  0.0000  0.0000  0.0000  0.0000
  89.  C 6 (d4)   0.0000  0.0000  0.0000  0.0000  0.0000 -0.0001  0.0000  0.0000
  90.  C 6 (d5)   0.0000  0.0000  0.0000  0.0000  0.0000  0.0000  0.0000  0.0000
  91.  C 7 (S)    0.0009  0.0012  0.0172  0.0191 -0.0011 -0.0043  0.6990 -0.0053
  92.  C 7 (S)    0.0038  0.0026  0.0158  0.0208  0.0003  0.0004  0.0799  0.0002
  93.  C 7 (S)    0.0007  0.0005  0.0025  0.0035  0.0001  0.0002  0.0034  0.0001
  94.  C 7 (S)    0.0000  0.0000  0.0002  0.0001  0.0000  0.0000  0.0002  0.0000
  95.  C 7 (px)   0.0000  0.0000  0.0000  0.0000  0.0000  0.0000  0.0000  0.0000
  96.  C 7 (px)   0.0000  0.0000  0.0000  0.0000  0.0000  0.0000  0.0000  0.0000
  97.  C 7 (py)   0.0031  0.0042  0.0215  0.0125  0.0008  0.0005 -0.0375  0.0010
  98.  C 7 (py)  -0.0006 -0.0009 -0.0046 -0.0027 -0.0002 -0.0001  0.0078 -0.0003
  99.  C 7 (pz)  -0.0045 -0.0046 -0.0288 -0.0278 -0.0005 -0.0012  0.0027 -0.0008
 100.  C 7 (pz)   0.0010  0.0010  0.0059  0.0059  0.0001  0.0003 -0.0008  0.0002
 101.  C 7 (d1)   0.0000  0.0000  0.0000  0.0000  0.0000  0.0000  0.0000  0.0000
 102.  C 7 (d2)   0.0000  0.0000  0.0000  0.0000  0.0000  0.0000  0.0000  0.0000
 103.  C 7 (d3)   0.0000  0.0000  0.0000  0.0001  0.0000  0.0000  0.0000  0.0000
 104.  C 7 (d4)   0.0000  0.0000  0.0000  0.0000  0.0000  0.0000 -0.0001  0.0000
 105.  C 7 (d5)   0.0000  0.0000  0.0000 -0.0001  0.0000  0.0000  0.0000  0.0000
 106.  C 8 (S)    0.6973 -0.7001  0.0606 -0.0532  0.0070 -0.0067  0.0007 -0.0088
 107.  C 8 (S)    0.0759 -0.0439 -0.0121  0.0135 -0.0071  0.0089  0.0020  0.0060
 108.  C 8 (S)    0.0035  0.0029 -0.0034  0.0036 -0.0015  0.0019  0.0004  0.0014
 109.  C 8 (S)   -0.0006 -0.0005  0.0005 -0.0006  0.0003 -0.0004 -0.0001 -0.0002
 110.  C 8 (px)   0.0000  0.0000  0.0000  0.0000  0.0000  0.0000  0.0000  0.0000
 111.  C 8 (px)   0.0000  0.0000  0.0000  0.0000  0.0000  0.0000  0.0000  0.0000
 112.  C 8 (py)   0.0330  0.0360  0.0177 -0.0167  0.0104 -0.0071 -0.0017 -0.0093
 113.  C 8 (py)  -0.0076 -0.0083 -0.0042  0.0038 -0.0026  0.0018  0.0003  0.0021
 114.  C 8 (pz)   0.0013 -0.0017 -0.0320  0.0309  0.0136 -0.0137  0.0016 -0.0153
 115.  C 8 (pz)  -0.0002  0.0004  0.0073 -0.0073 -0.0031  0.0032 -0.0005  0.0034
 116.  C 8 (d1)   0.0000  0.0000  0.0000  0.0000  0.0000  0.0000  0.0000  0.0000
 117.  C 8 (d2)   0.0000  0.0000  0.0000  0.0000  0.0000  0.0000  0.0000  0.0000
 118.  C 8 (d3)   0.0000  0.0000  0.0000  0.0000  0.0000  0.0000  0.0000  0.0000
 119.  C 8 (d4)   0.0000  0.0001  0.0000  0.0000  0.0000  0.0000  0.0000  0.0000
 120.  C 8 (d5)   0.0001  0.0000  0.0000  0.0000  0.0000  0.0000  0.0000  0.0000
 121.  C 9 (S)    0.0498 -0.0567 -0.6982  0.6988  0.0037 -0.0037 -0.0224  0.0126
 122.  C 9 (S)    0.0231 -0.0205 -0.0575  0.0587 -0.0041  0.0047  0.0170 -0.0083
 123.  C 9 (S)    0.0038 -0.0031  0.0002  0.0000 -0.0008  0.0010  0.0037 -0.0019
 124.  C 9 (S)   -0.0007  0.0006  0.0000  0.0000  0.0002 -0.0002 -0.0007  0.0004
 125.  C 9 (px)   0.0000  0.0000  0.0000  0.0000  0.0000  0.0000  0.0000  0.0000
 126.  C 9 (px)   0.0000  0.0000  0.0000  0.0000  0.0000  0.0000  0.0000  0.0000
 127.  C 9 (py)   0.0185 -0.0162  0.0022 -0.0017  0.0078 -0.0069  0.0205  0.0215
 128.  C 9 (py)  -0.0045  0.0037 -0.0006  0.0004 -0.0019  0.0017 -0.0049 -0.0050
 129.  C 9 (pz)  -0.0340  0.0282 -0.0034  0.0038  0.0005 -0.0011  0.0345 -0.0013
 130.  C 9 (pz)   0.0080 -0.0066  0.0008 -0.0010 -0.0002  0.0004 -0.0080  0.0002
 131.  C 9 (d1)   0.0000  0.0000  0.0000  0.0000  0.0000  0.0000  0.0000  0.0000
 132.  C 9 (d2)   0.0000  0.0000  0.0000  0.0000  0.0000  0.0000  0.0000  0.0000
 133.  C 9 (d3)   0.0000  0.0000  0.0000  0.0000  0.0000  0.0000  0.0000  0.0000
 134.  C 9 (d4)   0.0000  0.0000  0.0001 -0.0001  0.0000  0.0000  0.0000  0.0000
 135.  C 9 (d5)   0.0000  0.0000  0.0000  0.0000  0.0000  0.0000 -0.0001  0.0000
 136.  C10 (S)    0.0009 -0.0012 -0.0172  0.0191  0.0011 -0.0043  0.6990  0.0053
 137.  C10 (S)    0.0038 -0.0026 -0.0158  0.0208 -0.0003  0.0004  0.0799 -0.0002
 138.  C10 (S)    0.0007 -0.0005 -0.0025  0.0035 -0.0001  0.0002  0.0034 -0.0001
 139.  C10 (S)    0.0000  0.0000 -0.0002  0.0001  0.0000  0.0000  0.0002  0.0000
 140.  C10 (px)   0.0000  0.0000  0.0000  0.0000  0.0000  0.0000  0.0000  0.0000
 141.  C10 (px)   0.0000  0.0000  0.0000  0.0000  0.0000  0.0000  0.0000  0.0000
 142.  C10 (py)  -0.0031  0.0042  0.0215 -0.0125  0.0008 -0.0005  0.0375  0.0010
 143.  C10 (py)   0.0006 -0.0009 -0.0046  0.0027 -0.0002  0.0001 -0.0078 -0.0003
 144.  C10 (pz)  -0.0045  0.0046  0.0288 -0.0278  0.0005 -0.0012  0.0027  0.0008
 145.  C10 (pz)   0.0010 -0.0010 -0.0059  0.0059 -0.0001  0.0003 -0.0008 -0.0002
 146.  C10 (d1)   0.0000  0.0000  0.0000  0.0000  0.0000  0.0000  0.0000  0.0000
 147.  C10 (d2)   0.0000  0.0000  0.0000  0.0000  0.0000  0.0000  0.0000  0.0000
 148.  C10 (d3)   0.0000  0.0000  0.0000 -0.0001  0.0000  0.0000  0.0000  0.0000
 149.  C10 (d4)   0.0000  0.0000  0.0000  0.0000  0.0000  0.0000 -0.0001  0.0000
 150.  C10 (d5)   0.0000  0.0000  0.0000 -0.0001  0.0000  0.0000  0.0000  0.0000
 151.  C11 (S)    0.0010 -0.0013 -0.0205  0.0205 -0.1114  0.1116 -0.0100 -0.3383
 152.  C11 (S)    0.0037 -0.0031 -0.0194  0.0195 -0.0202  0.0205  0.0008 -0.0415
 153.  C11 (S)    0.0007 -0.0005 -0.0031  0.0032 -0.0019  0.0019  0.0003 -0.0022
 154.  C11 (S)    0.0000  0.0000 -0.0001  0.0001  0.0000  0.0000  0.0000 -0.0001
 155.  C11 (px)   0.0000  0.0000  0.0000  0.0000  0.0000  0.0000  0.0000  0.0000
 156.  C11 (px)   0.0000  0.0000  0.0000  0.0000  0.0000  0.0000  0.0000  0.0000
 157.  C11 (py)   0.0064 -0.0055 -0.0341  0.0343  0.0115 -0.0113  0.0030  0.0141
 158.  C11 (py)  -0.0014  0.0012  0.0072 -0.0072 -0.0024  0.0024 -0.0007 -0.0031
 159.  C11 (pz)   0.0002 -0.0011  0.0005 -0.0004  0.0168 -0.0168  0.0002  0.0202
 160.  C11 (pz)   0.0000  0.0001  0.0000  0.0000 -0.0036  0.0036 -0.0002 -0.0041
 161.  C11 (d1)   0.0000  0.0000  0.0000  0.0000  0.0000  0.0000  0.0000  0.0000
 162.  C11 (d2)   0.0000  0.0000  0.0000  0.0000  0.0000  0.0000  0.0000  0.0000
 163.  C11 (d3)   0.0000  0.0000  0.0000  0.0000  0.0000  0.0000  0.0000  0.0000
 164.  C11 (d4)   0.0000  0.0000 -0.0001  0.0001  0.0000  0.0000  0.0000  0.0000
 165.  C11 (d5)   0.0000  0.0000  0.0000  0.0000  0.0000  0.0000  0.0000  0.0000
 166.  H12 (S)    0.0011 -0.0007 -0.0034  0.0034 -0.0059  0.0060  0.0002 -0.0138
 167.  H12 (S)   -0.0002  0.0001  0.0005 -0.0005  0.0009 -0.0009  0.0000  0.0021
 168.  C13 (S)   -0.0001  0.0000 -0.0009  0.0009 -0.3233  0.3240 -0.0039 -0.4896
 169.  C13 (S)    0.0010 -0.0006 -0.0025  0.0025 -0.0460  0.0462  0.0002 -0.0446
 170.  C13 (S)    0.0002 -0.0001 -0.0005  0.0005 -0.0033  0.0033  0.0001 -0.0004
 171.  C13 (S)    0.0000  0.0000  0.0000  0.0000 -0.0003  0.0003  0.0000 -0.0001
 172.  C13 (px)   0.0000  0.0000  0.0000  0.0000  0.0000  0.0000  0.0000  0.0000
 173.  C13 (px)   0.0000  0.0000  0.0000  0.0000  0.0000  0.0000  0.0000  0.0000
 174.  C13 (py)   0.0009  0.0001 -0.0018  0.0019 -0.0159  0.0160  0.0008 -0.0020
[...]
                                                    69(v),206(g)
    19. BD (   1) C   8 - C   9          1.96753    -0.66200  220(g),218(g),219(g),208(g)
                                                    207(v),230(v),222(v),78(v)
                                                    221(v),180(v),148(v),149(v)
                                                    138(v)
    20. BD (   2) C   8 - C   9          1.56310    -0.22843  228(v),224(v),205(v),214(v)
                                                    140(v),150(v),181(v)
    21. BD (   1) C   8 - C  15          1.97505    -0.67272  216(g),208(g),227(g),219(v)
                                                    229(v),204(v),170(v),78(v)
                                                    230(g),129(v),169(v),128(v)
                                                    79(v)
    22. BD (   1) C   9 - C  10          1.97484    -0.65939  216(g),215(v),213(g),220(g)
                                                    218(v),109(v),223(v),119(v)
                                                    148(v),221(g)
    23. BD (   1) C   9 - C  11          1.97542    -0.67277  216(g),208(v),219(g),223(g)
                                                    226(v),160(v),213(v),119(v)
                                                    138(v),222(g),159(v)
    24. BD (   1) C  10 - H  21          1.98104    -0.51422  206(v),216(v),213(g),108(v)
                                                    129(v),219(g)
    25. BD (   1) C  11 - H  12          1.98170    -0.51383  216(v),225(v),128(v),159(v)
                                                    223(g),220(g)
    26. BD (   1) C  11 - C  13          1.98102    -0.69415  219(v),220(g),225(g),229(v)
                                                    129(v),222(g),170(v),226(g)
                                                    128(v),169(v)
    27. BD (   2) C  11 - C  13          1.71689    -0.24501  217(v),228(v),133(v),171(v)
    28. BD (   1) C  13 - C  14          1.98013    -0.67620  222(v),223(g),227(g),230(v)
                                                    149(v),180(v),226(g),229(g)
                                                    179(v),148(v)
    29. BD (   1) C  13 - H  22          1.98277    -0.51605  220(v),227(v),169(v),148(v)
                                                    223(g),225(g)
    30. BD (   1) C  14 - C  15          1.98042    -0.69261  208(v),218(g),225(g),118(v)
                                                    226(v),230(g),160(v),229(g)
                                                    159(v)
    31. BD (   2) C  14 - C  15          1.71570    -0.24484  217(v),224(v),123(v),161(v)
    32. BD (   1) C  14 - H  23          1.98275    -0.51505  218(v),223(v),179(v),159(v)
                                                    227(g),225(g)
    33. BD (   1) C  15 - H  24          1.98036    -0.51578  216(v),225(v),119(v),169(v)
                                                    218(g),227(g),211(r)
    34. CR (   1) C   1                  1.99909   -10.04193  99(v),59(v),202(v),203(v)
                                                    209(v),62(v),212(v)
    35. CR (   1) C   2                  1.99906   -10.03912  49(v),69(v),204(v),206(v)
                                                    200(v),201(v)
    36. CR (   1) C   3                  1.99902   -10.04117  78(v),59(v),109(v),208(v)
                                                    207(v),198(v),213(v),203(v)
    37. CR (   1) C   4                  1.99900   -10.04354  69(v),89(v),119(v),218(v)
                                                    206(v),202(v),209(v),216(v)
                                                    211(v)
    38. CR (   1) C   5                  1.99907   -10.03934  99(v),79(v),208(v),204(v)
                                                    200(v),212(v),78(v)
    39. CR (   1) C   6                  1.99911   -10.04260  89(v),49(v),207(v),211(v)
                                                    198(v),201(v),92(v)
    40. CR (   1) C   7                  1.99906   -10.03866  139(v),68(v),219(v),204(v)
                                                    202(v),221(v),213(g),142(v)
                                                    72(v)
    41. CR (   1) C   8                  1.99900   -10.04354  129(v),180(v),79(v),207(v)
                                                    219(v),220(v),227(v),204(v)
                                                    230(v)
    42. CR (   1) C   9                  1.99902   -10.04117  118(v),149(v),139(v),208(v)
                                                    218(v),223(v),213(v),222(v)
    43. CR (   1) C  10                  1.99906   -10.03866  109(v),128(v),206(v),216(v)
                                                    220(v),215(v),213(g),112(v)
                                                    132(v)
    44. CR (   1) C  11                  1.99906   -10.03912  160(v),129(v),216(v),219(v)
                                                    225(v),226(v)
    45. CR (   1) C  13                  1.99909   -10.04193  170(v),149(v),220(v),222(v)
                                                    227(v),152(v),229(v)
    46. CR (   1) C  14                  1.99911   -10.04260  180(v),160(v),218(v),230(v)
                                                    223(v),226(v),183(v)
    47. CR (   1) C  15                  1.99907   -10.03934  170(v),119(v),208(v),216(v)
                                                    225(v),229(v),118(v)
    48. RY*(   1) C   1                  0.00472     1.28820   
    49. RY*(   2) C   1                  0.00283     0.70391   
    50. RY*(   3) C   1                  0.00065     1.68141   
    51. RY*(   4) C   1                  0.00048     0.96352   
    52. RY*(   5) C   1                  0.00024     1.22390   
    53. RY*(   6) C   1                  0.00010     2.36521   
    54. RY*(   7) C   1                  0.00004     3.33700   
    55. RY*(   8) C   1                  0.00000     1.73302   
    56. RY*(   9) C   1                  0.00001     2.59765   
    57. RY*(  10) C   1                  0.00001     2.60204   
    58. RY*(   1) C   2                  0.00486     1.29392   
    59. RY*(   2) C   2                  0.00269     0.77436   
    60. RY*(   3) C   2                  0.00064     1.69746   
    61. RY*(   4) C   2                  0.00049     0.92939   
    62. RY*(   5) C   2                  0.00030     1.20939   
    63. RY*(   6) C   2                  0.00008     2.36176   
    64. RY*(   7) C   2                  0.00004     3.44748   
    65. RY*(   8) C   2                  0.00001     2.29788   
    66. RY*(   9) C   2                  0.00001     2.89014   
    67. RY*(  10) C   2                  0.00002     1.76453   
    68. RY*(   1) C   3                  0.00523     1.34917   
    69. RY*(   2) C   3                  0.00498     1.30444   
    70. RY*(   3) C   3                  0.00065     1.84371   
    71. RY*(   4) C   3                  0.00060     1.92646   
    72. RY*(   5) C   3                  0.00038     1.11221   
    73. RY*(   6) C   3                  0.00033     0.78965   
    74. RY*(   7) C   3                  0.00014     2.73859   
    75. RY*(   8) C   3                  0.00007     2.41741   
    76. RY*(   9) C   3                  0.00005     3.50737   
    77. RY*(  10) C   3                  0.00001     2.72592   
    78. RY*(   1) C   4                  0.00536     1.33843   
    79. RY*(   2) C   4                  0.00476     1.41924   
    80. RY*(   3) C   4                  0.00063     1.71094   
    81. RY*(   4) C   4                  0.00057     1.89243   
    82. RY*(   5) C   4                  0.00038     1.15058   
    83. RY*(   6) C   4                  0.00035     0.96178   
    84. RY*(   7) C   4                  0.00009     3.12624   
    85. RY*(   8) C   4                  0.00008     2.39071   
    86. RY*(   9) C   4                  0.00006     3.26080   
    87. RY*(  10) C   4                  0.00001     2.64269   
    88. RY*(   1) C   5                  0.00454     1.30626   
    89. RY*(   2) C   5                  0.00265     0.83660   
    90. RY*(   3) C   5                  0.00065     1.79269   
    91. RY*(   4) C   5                  0.00042     0.85749   
    92. RY*(   5) C   5                  0.00031     1.15841   
    93. RY*(   6) C   5                  0.00009     2.51713   
    94. RY*(   7) C   5                  0.00004     3.07995   
    95. RY*(   8) C   5                  0.00005     2.73755   
    96. RY*(   9) C   5                  0.00001     1.74989   
    97. RY*(  10) C   5                  0.00001     2.78176   
    98. RY*(   1) C   6                  0.00481     1.28388   
    99. RY*(   2) C   6                  0.00285     0.71426   
   100. RY*(   3) C   6                  0.00066     1.66614   
   101. RY*(   4) C   6                  0.00049     0.98619   
   102. RY*(   5) C   6                  0.00027     1.20119   
   103. RY*(   6) C   6                  0.00011     2.36685   
   104. RY*(   7) C   6                  0.00004     3.30310   
   105. RY*(   8) C   6                  0.00001     2.18258   
   106. RY*(   9) C   6                  0.00001     3.07502   
   107. RY*(  10) C   6                  0.00000     1.72508   
   108. RY*(   1) C   7                  0.00478     1.30277   
   109. RY*(   2) C   7                  0.00281     0.76160   
   110. RY*(   3) C   7                  0.00079     1.27446   
   111. RY*(   4) C   7                  0.00039     1.34470   
   112. RY*(   5) C   7                  0.00034     1.30563   
   113. RY*(   6) C   7                  0.00008     2.33354   
   114. RY*(   7) C   7                  0.00004     3.55735   
   115. RY*(   8) C   7                  0.00001     2.41230   
   116. RY*(   9) C   7                  0.00001     2.66279   
   117. RY*(  10) C   7                  0.00001     1.77488   
   118. RY*(   1) C   8                  0.00536     1.33843   
   119. RY*(   2) C   8                  0.00476     1.41924   
   120. RY*(   3) C   8                  0.00063     1.71094   
   121. RY*(   4) C   8                  0.00057     1.89243   
   122. RY*(   5) C   8                  0.00038     1.15058   
   123. RY*(   6) C   8                  0.00035     0.96178   
   124. RY*(   7) C   8                  0.00009     3.12624   
   125. RY*(   8) C   8                  0.00008     2.39071   
   126. RY*(   9) C   8                  0.00006     3.26080   
   127. RY*(  10) C   8                  0.00001     2.64269   
   128. RY*(   1) C   9                  0.00523     1.34917   
   129. RY*(   2) C   9                  0.00498     1.30444   
   130. RY*(   3) C   9                  0.00065     1.84371   
   131. RY*(   4) C   9                  0.00060     1.92646   
   132. RY*(   5) C   9                  0.00038     1.11221   
   133. RY*(   6) C   9                  0.00033     0.78965   
   134. RY*(   7) C   9                  0.00014     2.73859   
   135. RY*(   8) C   9                  0.00007     2.41741   
   136. RY*(   9) C   9                  0.00005     3.50737   
   137. RY*(  10) C   9                  0.00001     2.72592   
   138. RY*(   1) C  10                  0.00478     1.30277   
   139. RY*(   2) C  10                  0.00281     0.76160   
   140. RY*(   3) C  10                  0.00079     1.27446   
   141. RY*(   4) C  10                  0.00039     1.34470   
   142. RY*(   5) C  10                  0.00034     1.30563   
   143. RY*(   6) C  10                  0.00008     2.33354   
   144. RY*(   7) C  10                  0.00004     3.55735   
   145. RY*(   8) C  10                  0.00001     2.41230   
   146. RY*(   9) C  10                  0.00001     2.66279   
   147. RY*(  10) C  10                  0.00001     1.77488   
   148. RY*(   1) C  11                  0.00486     1.29392   
   149. RY*(   2) C  11                  0.00269     0.77436   
   150. RY*(   3) C  11                  0.00064     1.69746   
   151. RY*(   4) C  11                  0.00049     0.92939   
   152. RY*(   5) C  11                  0.00030     1.20939   
   153. RY*(   6) C  11                  0.00008     2.36176   
   154. RY*(   7) C  11                  0.00004     3.44748   
   155. RY*(   8) C  11                  0.00001     2.29788   
   156. RY*(   9) C  11                  0.00001     2.89014   
   157. RY*(  10) C  11                  0.00002     1.76453   
   158. RY*(   1) H  12                  0.00109     0.57541   
   159. RY*(   1) C  13                  0.00472     1.28820   
   160. RY*(   2) C  13                  0.00283     0.70391   
   161. RY*(   3) C  13                  0.00065     1.68141   
   162. RY*(   4) C  13                  0.00048     0.96352   
   163. RY*(   5) C  13                  0.00024     1.22390   
   164. RY*(   6) C  13                  0.00010     2.36521   
   165. RY*(   7) C  13                  0.00004     3.33700   
   166. RY*(   8) C  13                  0.00000     1.73302   
   167. RY*(   9) C  13                  0.00001     2.59765   
   168. RY*(  10) C  13                  0.00001     2.60204   
   169. RY*(   1) C  14                  0.00481     1.28388   
   170. RY*(   2) C  14                  0.00285     0.71426   
   171. RY*(   3) C  14                  0.00066     1.66614   
   172. RY*(   4) C  14                  0.00049     0.98619   
   173. RY*(   5) C  14                  0.00027     1.20119   
   174. RY*(   6) C  14                  0.00011     2.36685   
   175. RY*(   7) C  14                  0.00004     3.30310   
   176. RY*(   8) C  14                  0.00001     2.18258   
   177. RY*(   9) C  14                  0.00001     3.07502   
   178. RY*(  10) C  14                  0.00000     1.72508   
   179. RY*(   1) C  15                  0.00454     1.30626   
   180. RY*(   2) C  15                  0.00265     0.83660   
   181. RY*(   3) C  15                  0.00065     1.79269   
   182. RY*(   4) C  15                  0.00042     0.85749   
   183. RY*(   5) C  15                  0.00031     1.15841   
   184. RY*(   6) C  15                  0.00009     2.51713   
   185. RY*(   7) C  15                  0.00004     3.07995   
   186. RY*(   8) C  15                  0.00005     2.73755   
   187. RY*(   9) C  15                  0.00001     1.74989   
   188. RY*(  10) C  15                  0.00001     2.78176   
   189. RY*(   1) H  16                  0.00105     0.57410   
   190. RY*(   1) H  17                  0.00081     0.56407   
   191. RY*(   1) H  18                  0.00109     0.57541   
   192. RY*(   1) H  19                  0.00097     0.64517   
   193. RY*(   1) H  20                  0.00081     0.56481   
   194. RY*(   1) H  21                  0.00105     0.57410   
   195. RY*(   1) H  22                  0.00081     0.56407   
   196. RY*(   1) H  23                  0.00081     0.56481   
   197. RY*(   1) H  24                  0.00097     0.64517   
   198. BD*(   1) C   1 - C   2          0.01364     0.60909   
   199. BD*(   2) C   1 - C   2          0.27889     0.04580  224(r),210(v),205(v),61(g)
                                                    51(g)
   200. BD*(   1) C   1 - C   6          0.01648     0.56949   
   201. BD*(   1) C   1 - H  17          0.01217     0.47809   
   202. BD*(   1) C   2 - C   3          0.02075     0.56678   
   203. BD*(   1) C   2 - H  18          0.01291     0.47169   
   204. BD*(   1) C   3 - C   4          0.02922     0.55994   
   205. BD*(   2) C   3 - C   4          0.43670     0.04434  217(v),210(v),199(v),214(v)
                                                    228(r),73(g),83(g),224(r)
                                                    110(v)
   206. BD*(   1) C   3 - C   7          0.02214     0.53911   
   207. BD*(   1) C   4 - C   5          0.02140     0.56837   
   208. BD*(   1) C   4 - C   8          0.02725     0.52655   
   209. BD*(   1) C   5 - C   6          0.01374     0.60758   
   210. BD*(   2) C   5 - C   6          0.28159     0.04506  228(r),205(v),199(v),91(g)
                                                    101(g),217(r)
   211. BD*(   1) C   5 - H  19          0.01369     0.47886   
   212. BD*(   1) C   6 - H  20          0.01195     0.47799   
   213. BD*(   1) C   7 - C  10          0.01176     0.64224   
   214. BD*(   2) C   7 - C  10          0.19683     0.05296  205(v),217(v),111(g),141(g)
   215. BD*(   1) C   7 - H  16          0.01303     0.47111   
   216. BD*(   1) C   8 - C   9          0.02922     0.55994   
   217. BD*(   2) C   8 - C   9          0.43670     0.04434  205(v),228(v),224(v),214(v)
                                                    210(r),133(g),123(g),199(r)
                                                    140(v)
   218. BD*(   1) C   8 - C  15          0.02140     0.56837   
   219. BD*(   1) C   9 - C  10          0.02214     0.53911   
   220. BD*(   1) C   9 - C  11          0.02075     0.56678   
   221. BD*(   1) C  10 - H  21          0.01303     0.47111   
   222. BD*(   1) C  11 - H  12          0.01291     0.47169   
   223. BD*(   1) C  11 - C  13          0.01364     0.60909   
   224. BD*(   2) C  11 - C  13          0.27889     0.04580  199(r),228(v),217(v),151(g)
                                                    162(g)
   225. BD*(   1) C  13 - C  14          0.01648     0.56949   
   226. BD*(   1) C  13 - H  22          0.01217     0.47809   
   227. BD*(   1) C  14 - C  15          0.01374     0.60758   
   228. BD*(   2) C  14 - C  15          0.28159     0.04506  210(r),217(v),224(v),182(g)
                                                    172(g),205(r)
   229. BD*(   1) C  14 - H  23          0.01195     0.47799   
   230. BD*(   1) C  15 - H  24          0.01369     0.47886   
       -------------------------------
              Total Lewis   91.21761  ( 97.0400%)
        Valence non-Lewis    2.63240  (  2.8004%)
        Rydberg non-Lewis    0.14999  (  0.1596%)
       -------------------------------
            Total unit  1   94.00000  (100.0000%)
           Charge unit  1    0.00000
 Leave Link  607 at Thu Nov 29 03:15:49 2012, MaxMem=  196608000 cpu:       1.0
 (Enter d:\study\G03W\l9999.exe)
 1|1|UNPC-UNK|SP|RB3LYP|6-31G(d)|C14H10|PCUSER|29-Nov-2012|0||#p b3lyp/
 6-31g* pop=nboread||b3lyp/6-31g* opted||0,1|C,0,0.,3.561704,-0.296318|
 C,0,0.,2.837328,0.879084|C,0,0.,1.422938,0.866009|C,0,0.,0.728944,-0.3
 80909|C,0,0.,1.500382,-1.566879|C,0,0.,2.882946,-1.529307|C,0,0.,0.679
 781,2.093871|C,0,0.,-0.728944,-0.380909|C,0,0.,-1.422938,0.866009|C,0,
 0.,-0.679781,2.093871|C,0,0.,-2.837328,0.879084|H,0,0.,-3.348131,1.839
 368|C,0,0.,-3.561704,-0.296318|C,0,0.,-2.882946,-1.529307|C,0,0.,-1.50
 0382,-1.566879|H,0,0.,1.232701,3.030317|H,0,0.,4.648053,-0.271805|H,0,
 0.,3.348131,1.839368|H,0,0.,1.006911,-2.532945|H,0,0.,3.446951,-2.4582
 42|H,0,0.,-1.232701,3.030317|H,0,0.,-4.648053,-0.271805|H,0,0.,-3.4469
 51,-2.458242|H,0,0.,-1.006911,-2.532945||Version=IA32W-G03RevE.01|Stat
 e=1-A1|HF=-539.538856|RMSD=4.608e-008|Thermal=0.|Dipole=0.,0.,-0.01622
 5|PG=C02V [SGV(C14H10)]||@


 ADVERTISING--  HE WHO HAS SOMETHING TO SELL AND GOES AND WHISPERS
                IN A WELL, IS NOT SO APT TO GET THE DOLLARS AS HE
                WHO CLIMBS A TREE AND HOLLERS.

                   -- FROM THE BACK OF A SUGAR PACKET
 Job cpu time:  0 days  0 hours  0 minutes 27.0 seconds.
 File lengths (MBytes):  RWF=     40 Int=      0 D2E=      0 Chk=     14 Scr=      1
 Normal termination of Gaussian 03 at Thu Nov 29 03:15:50 2012.
