 Geometry was optimized at b3lyp/6-31g(d) level for neutr
GAUSSIAN             49 MOL ORBITALS    220 PRIMITIVES       13 NUCLEI
  C    1    (CENTRE  1)   0.03934599 -3.50985281  0.00000000  CHARGE =  6.0
  C    2    (CENTRE  2)   2.30638050 -2.15450533  0.00000000  CHARGE =  6.0
  C    3    (CENTRE  3)   2.30191697  0.47827056  0.00000000  CHARGE =  6.0
  C    4    (CENTRE  4)   0.00000000  1.77856276  0.00000000  CHARGE =  6.0
  C    5    (CENTRE  5)  -2.27949726  0.43926850  0.00000000  CHARGE =  6.0
  C    6    (CENTRE  6)  -2.24781033 -2.19799359  0.00000000  CHARGE =  6.0
  H    7    (CENTRE  7)   0.05676548 -5.56223522  0.00000000  CHARGE =  1.0
  H    8    (CENTRE  8)   4.10064711 -3.15500004  0.00000000  CHARGE =  1.0
  H    9    (CENTRE  9)   4.04858704  1.55395747  0.00000000  CHARGE =  1.0
  H   10    (CENTRE 10)  -4.06825153  1.45703153  0.00000000  CHARGE =  1.0
  H   11    (CENTRE 11)  -4.02698747 -3.22482920  0.00000000  CHARGE =  1.0
  O   12    (CENTRE 12)   0.09753821  4.36339251  0.00000000  CHARGE =  8.0
  H   13    (CENTRE 13)  -1.61308156  5.02143483  0.00000000  CHARGE =  1.0
CENTRE ASSIGNMENTS    1  1  1  1  1  1  1  1  1  1  1  1  1  1  1  1  1  1  1  1
CENTRE ASSIGNMENTS    1  1  1  1  1  1  1  1  2  2  2  2  2  2  2  2  2  2  2  2
CENTRE ASSIGNMENTS    2  2  2  2  2  2  2  2  2  2  2  2  2  2  2  2  3  3  3  3
CENTRE ASSIGNMENTS    3  3  3  3  3  3  3  3  3  3  3  3  3  3  3  3  3  3  3  3
CENTRE ASSIGNMENTS    3  3  3  3  4  4  4  4  4  4  4  4  4  4  4  4  4  4  4  4
CENTRE ASSIGNMENTS    4  4  4  4  4  4  4  4  4  4  4  4  5  5  5  5  5  5  5  5
CENTRE ASSIGNMENTS    5  5  5  5  5  5  5  5  5  5  5  5  5  5  5  5  5  5  5  5
CENTRE ASSIGNMENTS    6  6  6  6  6  6  6  6  6  6  6  6  6  6  6  6  6  6  6  6
CENTRE ASSIGNMENTS    6  6  6  6  6  6  6  6  7  7  7  7  8  8  8  8  9  9  9  9
CENTRE ASSIGNMENTS   10 10 10 10 11 11 11 11 12 12 12 12 12 12 12 12 12 12 12 12
CENTRE ASSIGNMENTS   12 12 12 12 12 12 12 12 12 12 12 12 12 12 12 12 13 13 13 13
TYPE ASSIGNMENTS      1  1  1  1  1  1  1  1  1  2  2  2  3  3  3  4  4  4  1  2
TYPE ASSIGNMENTS      3  4  5  6  7  8  9 10  1  1  1  1  1  1  1  1  1  2  2  2
TYPE ASSIGNMENTS      3  3  3  4  4  4  1  2  3  4  5  6  7  8  9 10  1  1  1  1
TYPE ASSIGNMENTS      1  1  1  1  1  2  2  2  3  3  3  4  4  4  1  2  3  4  5  6
TYPE ASSIGNMENTS      7  8  9 10  1  1  1  1  1  1  1  1  1  2  2  2  3  3  3  4
TYPE ASSIGNMENTS      4  4  1  2  3  4  5  6  7  8  9 10  1  1  1  1  1  1  1  1
TYPE ASSIGNMENTS      1  2  2  2  3  3  3  4  4  4  1  2  3  4  5  6  7  8  9 10
TYPE ASSIGNMENTS      1  1  1  1  1  1  1  1  1  2  2  2  3  3  3  4  4  4  1  2
TYPE ASSIGNMENTS      3  4  5  6  7  8  9 10  1  1  1  1  1  1  1  1  1  1  1  1
TYPE ASSIGNMENTS      1  1  1  1  1  1  1  1  1  1  1  1  1  1  1  1  1  2  2  2
TYPE ASSIGNMENTS      3  3  3  4  4  4  1  2  3  4  5  6  7  8  9 10  1  1  1  1
EXPONENTS  0.3047525D+04 0.4573695D+03 0.1039487D+03 0.2921016D+02 0.9286663D+01
EXPONENTS  0.3163927D+01 0.7868272D+01 0.1881289D+01 0.5442493D+00 0.7868272D+01
EXPONENTS  0.1881289D+01 0.5442493D+00 0.7868272D+01 0.1881289D+01 0.5442493D+00
EXPONENTS  0.7868272D+01 0.1881289D+01 0.5442493D+00 0.1687145D+00 0.1687145D+00
EXPONENTS  0.1687145D+00 0.1687145D+00 0.8000000D+00 0.8000000D+00 0.8000000D+00
EXPONENTS  0.8000000D+00 0.8000000D+00 0.8000000D+00 0.3047525D+04 0.4573695D+03
EXPONENTS  0.1039487D+03 0.2921016D+02 0.9286663D+01 0.3163927D+01 0.7868272D+01
EXPONENTS  0.1881289D+01 0.5442493D+00 0.7868272D+01 0.1881289D+01 0.5442493D+00
EXPONENTS  0.7868272D+01 0.1881289D+01 0.5442493D+00 0.7868272D+01 0.1881289D+01
EXPONENTS  0.5442493D+00 0.1687145D+00 0.1687145D+00 0.1687145D+00 0.1687145D+00
EXPONENTS  0.8000000D+00 0.8000000D+00 0.8000000D+00 0.8000000D+00 0.8000000D+00
EXPONENTS  0.8000000D+00 0.3047525D+04 0.4573695D+03 0.1039487D+03 0.2921016D+02
EXPONENTS  0.9286663D+01 0.3163927D+01 0.7868272D+01 0.1881289D+01 0.5442493D+00
EXPONENTS  0.7868272D+01 0.1881289D+01 0.5442493D+00 0.7868272D+01 0.1881289D+01
EXPONENTS  0.5442493D+00 0.7868272D+01 0.1881289D+01 0.5442493D+00 0.1687145D+00
EXPONENTS  0.1687145D+00 0.1687145D+00 0.1687145D+00 0.8000000D+00 0.8000000D+00
EXPONENTS  0.8000000D+00 0.8000000D+00 0.8000000D+00 0.8000000D+00 0.3047525D+04
EXPONENTS  0.4573695D+03 0.1039487D+03 0.2921016D+02 0.9286663D+01 0.3163927D+01
EXPONENTS  0.7868272D+01 0.1881289D+01 0.5442493D+00 0.7868272D+01 0.1881289D+01
EXPONENTS  0.5442493D+00 0.7868272D+01 0.1881289D+01 0.5442493D+00 0.7868272D+01
EXPONENTS  0.1881289D+01 0.5442493D+00 0.1687145D+00 0.1687145D+00 0.1687145D+00
EXPONENTS  0.1687145D+00 0.8000000D+00 0.8000000D+00 0.8000000D+00 0.8000000D+00
EXPONENTS  0.8000000D+00 0.8000000D+00 0.3047525D+04 0.4573695D+03 0.1039487D+03
EXPONENTS  0.2921016D+02 0.9286663D+01 0.3163927D+01 0.7868272D+01 0.1881289D+01
EXPONENTS  0.5442493D+00 0.7868272D+01 0.1881289D+01 0.5442493D+00 0.7868272D+01
EXPONENTS  0.1881289D+01 0.5442493D+00 0.7868272D+01 0.1881289D+01 0.5442493D+00
EXPONENTS  0.1687145D+00 0.1687145D+00 0.1687145D+00 0.1687145D+00 0.8000000D+00
EXPONENTS  0.8000000D+00 0.8000000D+00 0.8000000D+00 0.8000000D+00 0.8000000D+00
EXPONENTS  0.3047525D+04 0.4573695D+03 0.1039487D+03 0.2921016D+02 0.9286663D+01
EXPONENTS  0.3163927D+01 0.7868272D+01 0.1881289D+01 0.5442493D+00 0.7868272D+01
EXPONENTS  0.1881289D+01 0.5442493D+00 0.7868272D+01 0.1881289D+01 0.5442493D+00
EXPONENTS  0.7868272D+01 0.1881289D+01 0.5442493D+00 0.1687145D+00 0.1687145D+00
EXPONENTS  0.1687145D+00 0.1687145D+00 0.8000000D+00 0.8000000D+00 0.8000000D+00
EXPONENTS  0.8000000D+00 0.8000000D+00 0.8000000D+00 0.1873114D+02 0.2825394D+01
EXPONENTS  0.6401217D+00 0.1612778D+00 0.1873114D+02 0.2825394D+01 0.6401217D+00
EXPONENTS  0.1612778D+00 0.1873114D+02 0.2825394D+01 0.6401217D+00 0.1612778D+00
EXPONENTS  0.1873114D+02 0.2825394D+01 0.6401217D+00 0.1612778D+00 0.1873114D+02
EXPONENTS  0.2825394D+01 0.6401217D+00 0.1612778D+00 0.5484672D+04 0.8252349D+03
EXPONENTS  0.1880470D+03 0.5296450D+02 0.1689757D+02 0.5799635D+01 0.1553962D+02
EXPONENTS  0.3599934D+01 0.1013762D+01 0.1553962D+02 0.3599934D+01 0.1013762D+01
EXPONENTS  0.1553962D+02 0.3599934D+01 0.1013762D+01 0.1553962D+02 0.3599934D+01
EXPONENTS  0.1013762D+01 0.2700058D+00 0.2700058D+00 0.2700058D+00 0.2700058D+00
EXPONENTS  0.8000000D+00 0.8000000D+00 0.8000000D+00 0.8000000D+00 0.8000000D+00
EXPONENTS  0.8000000D+00 0.1873114D+02 0.2825394D+01 0.6401217D+00 0.1612778D+00
MO    1     MO 0.0        OCC NO =    1.0000000  ORB. ENERGY =  -19.438307
  0.84837666D-05  0.15650893D-04  0.25265394D-04  0.32888036D-04  0.28063420D-04
  0.96896247D-05 -0.32648102D-04 -0.15047480D-04  0.42194705D-04  0.30173778D-04
  0.23135339D-04  0.11546156D-04  0.38175446D-04  0.29270511D-04  0.14608036D-04
  0.00000000D+00  0.00000000D+00  0.00000000D+00 -0.16877091D-03 -0.23360895D-04
 -0.10048558D-03  0.00000000D+00 -0.26025069D-04  0.16298241D-04  0.44724922D-04
  0.22787547D-05  0.00000000D+00  0.00000000D+00  0.62799771D-05  0.11585331D-04
  0.18702317D-04  0.24344860D-04  0.20773513D-04  0.71725948D-05 -0.14557122D-04
 -0.67093640D-05  0.18813757D-04 -0.38838196D-04 -0.29778665D-04 -0.14861641D-04
  0.66794913D-04  0.51214103D-04  0.25559427D-04  0.00000000D+00  0.00000000D+00
  0.00000000D+00  0.17534780D-03 -0.53583163D-04  0.50321145D-06  0.00000000D+00
  0.22461665D-04  0.28146548D-04  0.45477099D-04  0.44521328D-04  0.00000000D+00
  0.00000000D+00  0.42618143D-05  0.78622152D-05  0.12692053D-04  0.16521282D-04
  0.14097640D-04  0.48675763D-05 -0.57794282D-04 -0.26637332D-04  0.74693858D-04
 -0.22107084D-04 -0.16950310D-04 -0.84593926D-05  0.19458474D-04  0.14919523D-04
  0.74458878D-05  0.00000000D+00  0.00000000D+00  0.00000000D+00 -0.16350737D-03
  0.19013623D-03  0.12457543D-03  0.00000000D+00 -0.10379754D-03 -0.62469141D-04
  0.28016045D-04  0.22106445D-04  0.00000000D+00  0.00000000D+00 -0.23379457D-04
 -0.43130533D-04 -0.69626054D-04 -0.90632434D-04 -0.77336820D-04 -0.26702545D-04
 -0.65908375D-04 -0.30377110D-04  0.85180587D-04  0.99467239D-04  0.76265170D-04
  0.38061665D-04  0.57785292D-03  0.44306097D-03  0.22111847D-03  0.00000000D+00
  0.00000000D+00  0.00000000D+00 -0.53124806D-04 -0.11815633D-03 -0.68021198D-03
  0.00000000D+00 -0.31019151D-05 -0.32499906D-04 -0.85309049D-04  0.87781121D-04
  0.00000000D+00  0.00000000D+00  0.15147970D-04  0.27945047D-04  0.45111970D-04
  0.58722381D-04  0.50107915D-04  0.17301059D-04 -0.93020289D-04 -0.42872966D-04
  0.12022027D-03 -0.42949649D-04 -0.32931067D-04 -0.16434910D-04 -0.10461029D-03
 -0.80208535D-04 -0.40029680D-04  0.00000000D+00  0.00000000D+00  0.00000000D+00
 -0.56457483D-03 -0.24213114D-03  0.22431393D-03  0.00000000D+00 -0.59294472D-04
 -0.90118573D-04  0.68337096D-04 -0.22281771D-04  0.00000000D+00  0.00000000D+00
 -0.31622496D-05 -0.58337330D-05 -0.94174538D-05 -0.12258727D-04 -0.10460394D-04
 -0.36117226D-05  0.22642149D-04  0.10435746D-04 -0.29262921D-04  0.12662893D-04
  0.97091034D-05  0.48455230D-05  0.10864813D-03  0.83304497D-04  0.41574782D-04
  0.00000000D+00  0.00000000D+00  0.00000000D+00  0.36297521D-03  0.71763061D-04
  0.12353928D-03  0.00000000D+00 -0.49299797D-05  0.64068348D-04  0.26731870D-05
 -0.27724909D-04  0.00000000D+00  0.00000000D+00 -0.54805521D-05 -0.92960536D-05
 -0.10583228D-04 -0.33600460D-04  0.53409126D-06  0.90591987D-06  0.10313577D-05
 -0.13828067D-05 -0.28906876D-05 -0.49031532D-05 -0.55820666D-05 -0.12132800D-03
 -0.23025233D-04 -0.39055154D-04 -0.44462912D-04 -0.81233793D-04  0.13234363D-05
  0.22447985D-05  0.25556237D-05  0.17373332D-04  0.82559796D+00  0.15195410D+01
  0.24589041D+01  0.32322983D+01  0.27723235D+01  0.94790448D+00 -0.15907511D-01
 -0.70979003D-02  0.20960195D-01 -0.29412014D-02 -0.22660372D-02 -0.99491236D-03
 -0.15594072D-02 -0.12014392D-02 -0.52749653D-03  0.00000000D+00  0.00000000D+00
  0.00000000D+00  0.38314393D-02  0.64850319D-04 -0.35000592D-03  0.00000000D+00
 -0.93758399D-02 -0.92371989D-02 -0.92097680D-02 -0.43544790D-04  0.00000000D+00
  0.00000000D+00  0.91778470D-04  0.15567366D-03  0.17722896D-03 -0.19061433D-03
MO    2     MO 0.0        OCC NO =    1.0000000  ORB. ENERGY =  -10.504780
 -0.71210216D-04 -0.13136894D-03 -0.21207021D-03 -0.27605240D-03 -0.23555601D-03
 -0.81331831D-04  0.15448939D-03  0.71204019D-04 -0.19966350D-03 -0.30577109D-05
 -0.23444588D-05 -0.11700493D-05 -0.88478358D-04 -0.67839593D-04 -0.33856711D-04
  0.00000000D+00  0.00000000D+00  0.00000000D+00  0.10597145D-02 -0.15083309D-04
  0.54788761D-03  0.00000000D+00  0.35637280D-04 -0.37582153D-04 -0.16686653D-03
 -0.12959517D-05  0.00000000D+00  0.00000000D+00  0.25188457D-04  0.46467784D-04
  0.75013412D-04  0.97645174D-04  0.83320804D-04  0.28768671D-04 -0.66155332D-04
 -0.30490932D-04  0.85499756D-04  0.50210684D-04  0.38498368D-04  0.19213384D-04
 -0.15378731D-03 -0.11791436D-03 -0.58847529D-04  0.00000000D+00  0.00000000D+00
  0.00000000D+00 -0.12999994D-02  0.45222901D-03 -0.30600259D-03  0.00000000D+00
  0.26096553D-04  0.66692459D-04  0.26077934D-04 -0.62188004D-04  0.00000000D+00
  0.00000000D+00  0.15259584D-02  0.28150953D-02  0.45444367D-02  0.59155063D-02
  0.50477122D-02  0.17428537D-02  0.27107496D-03  0.12493820D-03 -0.35033975D-03
  0.35081339D-03  0.26898146D-03  0.13424060D-03 -0.48617650D-04 -0.37276930D-04
 -0.18603801D-04  0.00000000D+00  0.00000000D+00  0.00000000D+00  0.21831872D-02
 -0.99763810D-03 -0.44916917D-03  0.00000000D+00 -0.26662177D-03 -0.42831627D-03
 -0.35680786D-03  0.27651590D-03  0.00000000D+00  0.00000000D+00  0.53252974D+00
  0.98241338D+00  0.15859198D+01  0.20643964D+01  0.17615532D+01  0.60822197D+00
 -0.19887143D-01 -0.91659659D-02  0.25702325D-01 -0.25091937D-06 -0.19238906D-06
 -0.96015624D-07  0.92865699D-03  0.71203528D-03  0.35535551D-03  0.00000000D+00
  0.00000000D+00  0.00000000D+00 -0.36992797D-02  0.67484525D-04  0.16752845D-02
  0.00000000D+00 -0.10257859D-01 -0.95860428D-02 -0.10447046D-01  0.10767101D-03
  0.00000000D+00  0.00000000D+00  0.15884271D-02  0.29303378D-02  0.47304739D-02
  0.61576714D-02  0.52543522D-02  0.18142015D-02  0.27323490D-03  0.12593372D-03
 -0.35313128D-03 -0.37848934D-03 -0.29020162D-03 -0.14483095D-03 -0.54317106D-04
 -0.41646911D-04 -0.20784728D-04  0.00000000D+00  0.00000000D+00  0.00000000D+00
  0.22857941D-02  0.10605408D-02 -0.37989383D-03  0.00000000D+00 -0.29314210D-03
 -0.42649335D-03 -0.35741539D-03 -0.27501459D-03  0.00000000D+00  0.00000000D+00
  0.26019117D-04  0.48000190D-04  0.77487190D-04  0.10086530D-03  0.86068541D-04
  0.29717399D-04 -0.68178631D-04 -0.31423469D-04  0.88114686D-04 -0.42341687D-04
 -0.32464920D-04 -0.16202270D-04 -0.16213653D-03 -0.12431600D-03 -0.62042399D-04
  0.00000000D+00  0.00000000D+00  0.00000000D+00 -0.12917165D-02 -0.47604181D-03
 -0.29820281D-03  0.00000000D+00  0.25081879D-04  0.64104188D-04  0.26903101D-04
  0.53175114D-04  0.00000000D+00  0.00000000D+00  0.22814657D-04  0.38697977D-04
  0.44056279D-04  0.16442457D-03 -0.15859281D-04 -0.26900342D-04 -0.30625089D-04
 -0.10508898D-03  0.36414197D-04  0.61765370D-04  0.70317691D-04  0.32944242D-03
  0.33326035D-04  0.56527264D-04  0.64354292D-04  0.34293900D-03 -0.17990875D-04
 -0.30515930D-04 -0.34741307D-04 -0.11442381D-03  0.10178755D-03  0.18734343D-03
  0.30315703D-03  0.39850840D-03  0.34179834D-03  0.11686666D-03 -0.61618679D-03
 -0.27494135D-03  0.81190548D-03  0.58276444D-04  0.44898859D-04  0.19713017D-04
  0.69424036D-05  0.53487477D-05  0.23483883D-05  0.00000000D+00  0.00000000D+00
  0.00000000D+00 -0.14762628D-02  0.11049816D-04  0.72039869D-03  0.00000000D+00
  0.69126244D-03 -0.48234923D-03  0.87743315D-03 -0.19526955D-04  0.00000000D+00
  0.00000000D+00  0.34156946D-04  0.57936645D-04  0.65958823D-04 -0.53627530D-04
MO    3     MO 0.0        OCC NO =    1.0000000  ORB. ENERGY =  -10.430902
  0.53231979D+00  0.98202607D+00  0.15852946D+01  0.20635825D+01  0.17608587D+01
  0.60798218D+00 -0.20193224D-01 -0.93070384D-02  0.26097907D-01 -0.56394286D-04
 -0.43239561D-04 -0.21579572D-04  0.63003280D-03  0.48306919D-03  0.24108538D-03
  0.00000000D+00  0.00000000D+00  0.00000000D+00 -0.36676044D-02  0.13095264D-04
 -0.84620433D-03  0.00000000D+00 -0.10564800D-01 -0.10726877D-01 -0.10666483D-01
 -0.12262078D-04  0.00000000D+00  0.00000000D+00  0.62472589D-02  0.11524973D-01
  0.18604880D-01  0.24218025D-01  0.20665285D-01  0.71352262D-02  0.30089982D-04
  0.13868445D-04 -0.38888568D-04  0.38239419D-03  0.29319561D-03  0.14632516D-03
  0.15007497D-03  0.11506797D-03  0.57426981D-04  0.00000000D+00  0.00000000D+00
  0.00000000D+00  0.17353865D-02 -0.69823691D-03  0.14208397D-03  0.00000000D+00
 -0.49993456D-03 -0.46436763D-03 -0.37388751D-03 -0.24979515D-03  0.00000000D+00
  0.00000000D+00  0.13159252D-03  0.24276251D-03  0.39189396D-03  0.51012950D-03
  0.43529443D-03  0.15029670D-03 -0.52866067D-04 -0.24365922D-04  0.68324589D-04
  0.11166951D-04  0.85621096D-05  0.42730928D-05  0.63353838D-04  0.48575705D-04
  0.24242681D-04  0.00000000D+00  0.00000000D+00  0.00000000D+00 -0.85842414D-03
  0.35971814D-03  0.23729094D-03  0.00000000D+00  0.28776657D-04  0.77769167D-04
  0.38413012D-04  0.30476661D-04  0.00000000D+00  0.00000000D+00 -0.36629630D-06
 -0.67574515D-06 -0.10908622D-05 -0.14199785D-05 -0.12116702D-05 -0.41836060D-06
  0.11604829D-03  0.53486553D-04 -0.14998188D-03  0.24697134D-05  0.18936196D-05
  0.94504891D-06  0.34299168D-04  0.26298426D-04  0.13124758D-04  0.00000000D+00
  0.00000000D+00  0.00000000D+00  0.78043451D-03 -0.12735386D-04 -0.44101749D-03
  0.00000000D+00 -0.30821153D-05 -0.70449049D-04 -0.12022796D-03 -0.16997029D-05
  0.00000000D+00  0.00000000D+00  0.24479239D-03  0.45159416D-03  0.72901300D-03
  0.94895832D-03  0.80974786D-03  0.27958648D-03 -0.55522417D-04 -0.25590231D-04
  0.71757680D-04 -0.13921232D-04 -0.10673918D-04 -0.53270330D-05  0.64152337D-04
  0.49187943D-04  0.24548231D-04  0.00000000D+00  0.00000000D+00  0.00000000D+00
 -0.86662300D-03 -0.36797337D-03  0.21081553D-03  0.00000000D+00  0.25109848D-04
  0.74397340D-04  0.34311944D-04 -0.36860338D-04  0.00000000D+00  0.00000000D+00
  0.89545610D-02  0.16519417D-01  0.26667461D-01  0.34713110D-01  0.29620760D-01
  0.10227336D-01 -0.72822178D-04 -0.33563675D-04  0.94116048D-04 -0.39428734D-03
 -0.30231452D-03 -0.15087613D-03  0.15282993D-03  0.11718030D-03  0.58481180D-04
  0.00000000D+00  0.00000000D+00  0.00000000D+00  0.17167138D-02  0.69722453D-03
  0.14254527D-03  0.00000000D+00 -0.57084292D-03 -0.52136269D-03 -0.42719995D-03
  0.26474964D-03  0.00000000D+00  0.00000000D+00 -0.92404655D-04 -0.15673578D-03
 -0.17843815D-03  0.10971181D-03  0.80764592D-05  0.13699203D-04  0.15596059D-04
  0.16175111D-03 -0.20079226D-04 -0.34058167D-04 -0.38774019D-04 -0.10120639D-03
 -0.18455878D-04 -0.31304662D-04 -0.35639252D-04 -0.98573060D-04  0.75344319D-05
  0.12779823D-04  0.14549376D-04  0.16226288D-03 -0.27307529D-04 -0.50260430D-04
 -0.81330863D-04 -0.10691170D-03 -0.91697541D-04 -0.31352947D-04  0.94583690D-04
  0.42203058D-04 -0.12462620D-03 -0.82640560D-05 -0.63670096D-05 -0.27954602D-05
  0.33051747D-04  0.25464589D-04  0.11180326D-04  0.00000000D+00  0.00000000D+00
  0.00000000D+00  0.29412432D-03  0.94904642D-07 -0.71557146D-04  0.00000000D+00
 -0.98108363D-04 -0.86146130D-04 -0.94464049D-04  0.37724058D-05  0.00000000D+00
  0.00000000D+00 -0.26735331D-05 -0.45348182D-05 -0.51627302D-05  0.11860474D-04
MO    4     MO 0.0        OCC NO =    1.0000000  ORB. ENERGY =  -10.421515
 -0.57051750D-03 -0.10524934D-02 -0.16990507D-02 -0.22116591D-02 -0.18872128D-02
 -0.65160921D-03 -0.18912309D-04 -0.87166661D-05  0.24442442D-04  0.83510090D-04
  0.64030240D-04  0.31955577D-04 -0.48741495D-04 -0.37371887D-04 -0.18651191D-04
  0.00000000D+00  0.00000000D+00  0.00000000D+00 -0.75932257D-03  0.16464321D-04
 -0.36822463D-03  0.00000000D+00  0.38464917D-04  0.71142906D-04  0.48820056D-04
 -0.49887122D-04  0.00000000D+00  0.00000000D+00 -0.18570224D-03 -0.34258438D-03
 -0.55303741D-03 -0.71989038D-03 -0.61428377D-03 -0.21209742D-03  0.10144045D-03
  0.46753811D-04 -0.13110257D-03  0.28494420D-04  0.21847714D-04  0.10903540D-04
 -0.42006064D-04 -0.32207585D-04 -0.16073842D-04  0.00000000D+00  0.00000000D+00
  0.00000000D+00  0.69803445D-03 -0.27244124D-03  0.18039346D-03  0.00000000D+00
 -0.32659791D-05  0.49186787D-05 -0.99047148D-04  0.40163177D-04  0.00000000D+00
  0.00000000D+00 -0.32909584D-03 -0.60711756D-03 -0.98007599D-03 -0.12757677D-02
 -0.10886149D-02 -0.37587257D-03  0.21980998D-06  0.10131022D-06 -0.28408443D-06
  0.48805944D-04  0.37421302D-04  0.18675852D-04  0.35049461D-05  0.26873704D-05
  0.13411862D-05  0.00000000D+00  0.00000000D+00  0.00000000D+00 -0.62676689D-03
  0.24192879D-03  0.23246668D-03  0.00000000D+00  0.12236404D-03  0.57147120D-04
  0.17595401D-04 -0.70097308D-04  0.00000000D+00  0.00000000D+00 -0.18598375D-02
 -0.34310371D-02 -0.55387577D-02 -0.72098168D-02 -0.61521497D-02 -0.21241895D-02
  0.30885703D-03  0.14235192D-03 -0.39916965D-03  0.43383424D-03  0.33263658D-03
  0.16600897D-03  0.25192938D-03  0.19316347D-03  0.96402110D-04  0.00000000D+00
  0.00000000D+00  0.00000000D+00  0.16683349D-02 -0.37786498D-03 -0.60739849D-03
  0.00000000D+00 -0.57480682D-03 -0.33872585D-03 -0.21404156D-03 -0.23107654D-03
  0.00000000D+00  0.00000000D+00  0.53204142D+00  0.98151253D+00  0.15844656D+01
  0.20625034D+01  0.17599379D+01  0.60766425D+00 -0.20034409D-01 -0.92338410D-02
  0.25892654D-01  0.75242465D-03  0.57691150D-03  0.28791927D-03  0.92188910D-04
  0.70684609D-04  0.35276574D-04  0.00000000D+00  0.00000000D+00  0.00000000D+00
 -0.36611484D-02 -0.74299459D-03  0.29733891D-03  0.00000000D+00 -0.10429077D-01
 -0.10417252D-01 -0.10658975D-01  0.19835515D-03  0.00000000D+00  0.00000000D+00
  0.20916304D-01  0.38586497D-01  0.62290570D-01  0.81083814D-01  0.69188965D-01
  0.23889287D-01 -0.51153396D-03 -0.23576553D-03  0.66111116D-03 -0.72059247D-04
 -0.55250460D-04 -0.27573852D-04 -0.37677153D-03 -0.28888451D-03 -0.14417362D-03
  0.00000000D+00  0.00000000D+00  0.00000000D+00  0.15378424D-02  0.46403297D-03
  0.49225062D-03  0.00000000D+00 -0.65152603D-03 -0.83634170D-03 -0.66133872D-03
  0.79922796D-04  0.00000000D+00  0.00000000D+00 -0.15344791D-04 -0.26027671D-04
 -0.29631583D-04 -0.83749649D-04  0.10711890D-04  0.18169393D-04  0.20685211D-04
  0.92546764D-04 -0.16213393D-04 -0.27500983D-04 -0.31308897D-04 -0.68649027D-04
 -0.91001595D-04 -0.15435593D-03 -0.17572877D-03  0.13415424D-03  0.10334473D-04
  0.17529222D-04  0.19956400D-04  0.16871043D-03 -0.16719357D-04 -0.30772541D-04
 -0.49795781D-04 -0.65457948D-04 -0.56142901D-04 -0.19196211D-04  0.86605173D-04
  0.38643060D-04 -0.11411347D-03 -0.69122042D-04 -0.53254807D-04 -0.23381729D-04
  0.23999268D-04  0.18490142D-04  0.81181684D-05  0.00000000D+00  0.00000000D+00
  0.00000000D+00  0.20463756D-03  0.73149407D-04 -0.47737219D-04  0.00000000D+00
 -0.34092771D-04  0.11798382D-04 -0.10052738D-03  0.39579896D-05  0.00000000D+00
  0.00000000D+00  0.33924718D-05  0.57542743D-05  0.65510379D-05  0.19833949D-04
MO    5     MO 0.0        OCC NO =    1.0000000  ORB. ENERGY =  -10.418172
 -0.26674828D-03 -0.49209848D-03 -0.79439953D-03 -0.10340722D-02 -0.88237564D-03
 -0.30466310D-03 -0.32117327D-04 -0.14802847D-04  0.41508727D-04 -0.78996379D-04
 -0.60569413D-04 -0.30228382D-04 -0.50840277D-04 -0.38981100D-04 -0.19454301D-04
  0.00000000D+00  0.00000000D+00  0.00000000D+00 -0.78264703D-03 -0.11354082D-05
 -0.37513229D-03  0.00000000D+00  0.36081033D-04  0.68899621D-04  0.42710521D-04
  0.52887066D-04  0.00000000D+00  0.00000000D+00  0.14658806D-01  0.27042635D-01
  0.43655198D-01  0.56826096D-01  0.48489811D-01  0.16742366D-01 -0.27664107D-03
 -0.12750362D-03  0.35753345D-03  0.84547197D-04  0.64825428D-04  0.32352432D-04
 -0.39057377D-03 -0.29946719D-03 -0.14945512D-03  0.00000000D+00  0.00000000D+00
  0.00000000D+00  0.16028866D-02 -0.47181190D-03  0.50413996D-03  0.00000000D+00
 -0.53198182D-03 -0.73057463D-03 -0.53931693D-03 -0.67166400D-04  0.00000000D+00
  0.00000000D+00  0.53224653D+00  0.98189091D+00  0.15850764D+01  0.20632985D+01
  0.17606163D+01  0.60789851D+00 -0.20080995D-01 -0.92553120D-02  0.25952861D-01
 -0.87324067D-03 -0.66954556D-03 -0.33415016D-03 -0.12753508D-04 -0.97785811D-05
 -0.48801973D-05  0.00000000D+00  0.00000000D+00  0.00000000D+00 -0.36537765D-02
  0.73990926D-03  0.35343365D-03  0.00000000D+00 -0.10471237D-01 -0.10446264D-01
 -0.10673980D-01 -0.19648136D-03  0.00000000D+00  0.00000000D+00 -0.17993700D-02
 -0.33194863D-02 -0.53586802D-02 -0.69754094D-02 -0.59521294D-02 -0.20551273D-02
  0.30444918D-03  0.14032035D-03 -0.39347290D-03 -0.43226015D-03 -0.33142967D-03
 -0.16540663D-03  0.24145955D-03  0.18513587D-03  0.92395773D-04  0.00000000D+00
  0.00000000D+00  0.00000000D+00  0.16961654D-02  0.32513914D-03 -0.59814533D-03
  0.00000000D+00 -0.58487514D-03 -0.34049970D-03 -0.21882041D-03  0.20924167D-03
  0.00000000D+00  0.00000000D+00  0.37261288D-03  0.68739800D-03  0.11096735D-02
  0.14444652D-02  0.12325648D-02  0.42557499D-03 -0.28931310D-04 -0.13334414D-04
  0.37391089D-04 -0.47233155D-04 -0.36215388D-04 -0.18074017D-04  0.16837798D-05
  0.12910155D-05  0.64430723D-06  0.00000000D+00  0.00000000D+00  0.00000000D+00
 -0.67112870D-03 -0.26937871D-03  0.19792756D-03  0.00000000D+00  0.10804970D-03
  0.39637895D-04  0.24809109D-05  0.59113456D-04  0.00000000D+00  0.00000000D+00
 -0.55819954D-03 -0.10297692D-02 -0.16623667D-02 -0.21639075D-02 -0.18464662D-02
 -0.63754041D-03  0.11634366D-03  0.53622685D-04 -0.15036361D-03 -0.33697197D-04
 -0.25836873D-04 -0.12894411D-04 -0.45389433D-04 -0.34801739D-04 -0.17368507D-04
  0.00000000D+00  0.00000000D+00  0.00000000D+00  0.69808749D-03  0.28745809D-03
  0.17538497D-03  0.00000000D+00  0.21076382D-05  0.89201419D-05 -0.94184924D-04
 -0.40258162D-04  0.00000000D+00  0.00000000D+00 -0.15291671D-04 -0.25937569D-04
 -0.29529005D-04 -0.84333723D-04  0.10740168D-04  0.18217357D-04  0.20739817D-04
  0.16572596D-03 -0.90802246D-04 -0.15401780D-03 -0.17534382D-03  0.12389578D-03
 -0.13913118D-04 -0.23599282D-04 -0.26866949D-04 -0.73058010D-04  0.12204788D-04
  0.20701630D-04  0.23568074D-04  0.97386347D-04 -0.84854539D-05 -0.15617765D-04
 -0.25272492D-04 -0.33221398D-04 -0.28493800D-04 -0.97425141D-05  0.70049135D-04
  0.31255787D-04 -0.92298759D-04  0.69792827D-05  0.53771611D-05  0.23608633D-05
  0.71191409D-05  0.54849143D-05  0.24081728D-05  0.00000000D+00  0.00000000D+00
  0.00000000D+00  0.14505053D-03 -0.29722291D-04 -0.39355834D-04  0.00000000D+00
  0.16116167D-04  0.43425603D-04 -0.70066184D-04 -0.13016962D-04  0.00000000D+00
  0.00000000D+00 -0.18860300D-05 -0.31990639D-05 -0.36420212D-05  0.34953223D-04
MO    6     MO 0.0        OCC NO =    1.0000000  ORB. ENERGY =  -10.414557
 -0.91929268D-02 -0.16959155D-01 -0.27377335D-01 -0.35637155D-01 -0.30409249D-01
 -0.10499583D-01  0.60497578D-03  0.27883279D-03 -0.78187624D-03  0.36425776D-03
  0.27928974D-03  0.13938516D-03 -0.32387830D-03 -0.24832934D-03 -0.12393374D-03
  0.00000000D+00  0.00000000D+00  0.00000000D+00  0.17766447D-02 -0.24067301D-03
  0.68536577D-03  0.00000000D+00 -0.36210103D-03 -0.10609642D-03 -0.60599853D-04
  0.21407510D-03  0.00000000D+00  0.00000000D+00 -0.37315710D-03 -0.68840198D-03
 -0.11112942D-02 -0.14465749D-02 -0.12343650D-02 -0.42619657D-03 -0.30382143D-04
 -0.14003102D-04  0.39266160D-04  0.60870153D-04  0.46671372D-04  0.23292286D-04
  0.23501916D-04  0.18019778D-04  0.89931322D-05  0.00000000D+00  0.00000000D+00
  0.00000000D+00 -0.87036147D-03  0.32449062D-03 -0.19895763D-03  0.00000000D+00
  0.12017611D-03  0.43617313D-04  0.48819721D-04  0.24702303D-04  0.00000000D+00
  0.00000000D+00  0.52960512D-03  0.97701803D-03  0.15772100D-02  0.20530588D-02
  0.17518788D-02  0.60488166D-03  0.73240370D-04  0.33756419D-04 -0.94656524D-04
  0.50327177D-04  0.38587687D-04  0.19257960D-04  0.28646566D-04  0.21964370D-04
  0.10961760D-04  0.00000000D+00  0.00000000D+00  0.00000000D+00  0.66771626D-03
 -0.28820170D-03 -0.23467245D-03  0.00000000D+00 -0.33347635D-04 -0.13099549D-04
 -0.11348398D-03 -0.11646956D-04  0.00000000D+00  0.00000000D+00  0.83472615D-04
  0.15399068D-03  0.24858870D-03  0.32358862D-03  0.27611876D-03  0.95337171D-04
 -0.59431697D-04 -0.27392015D-04  0.76810068D-04 -0.32241112D-05 -0.24720440D-05
 -0.12337232D-05  0.12839051D-04  0.98441697D-05  0.49129306D-05  0.00000000D+00
  0.00000000D+00  0.00000000D+00 -0.92796414D-03  0.11799036D-03  0.35579390D-03
  0.00000000D+00  0.81881638D-04  0.46042126D-04  0.49304177D-04  0.67281660D-04
  0.00000000D+00  0.00000000D+00 -0.21180238D-01 -0.39073404D-01 -0.63076590D-01
 -0.82106978D-01 -0.70062033D-01 -0.24190736D-01  0.10692386D-02  0.49281109D-03
 -0.13818938D-02 -0.11580109D-03 -0.88788932D-04 -0.44311900D-04  0.45961282D-03
  0.35240196D-03  0.17587327D-03  0.00000000D+00  0.00000000D+00  0.00000000D+00
  0.19211728D-02  0.52578775D-03 -0.49380290D-03  0.00000000D+00  0.15962285D-03
 -0.10609496D-03  0.16895286D-03 -0.86869135D-04  0.00000000D+00  0.00000000D+00
  0.53200953D+00  0.98145370D+00  0.15843706D+01  0.20623797D+01  0.17598324D+01
  0.60762783D+00 -0.19891289D-01 -0.91678768D-02  0.25707684D-01  0.66363168D-03
  0.50883068D-03  0.25394217D-03  0.26459209D-03  0.20287243D-03  0.10124756D-03
  0.00000000D+00  0.00000000D+00  0.00000000D+00 -0.37242857D-02 -0.75026765D-03
 -0.42142220D-03  0.00000000D+00 -0.10239675D-01 -0.10163795D-01 -0.10577934D-01
 -0.22260545D-03  0.00000000D+00  0.00000000D+00  0.11983837D-04  0.20326856D-04
  0.23141407D-04  0.15644072D-03 -0.12297161D-04 -0.20858312D-04 -0.23746451D-04
 -0.77304137D-04  0.17792821D-04  0.30179992D-04  0.34358854D-04  0.11058125D-03
  0.12614022D-04  0.21395768D-04  0.24358326D-04  0.14266378D-03 -0.97509116D-04
 -0.16539392D-03 -0.18829513D-03  0.11041655D-03 -0.50951942D-05 -0.93778772D-05
 -0.15175176D-04 -0.19948193D-04 -0.17109449D-04 -0.58500113D-05  0.16099718D-04
  0.71836629D-05 -0.21213453D-04  0.45497825D-04  0.35053621D-04  0.15390428D-04
  0.63598822D-04  0.48999464D-04  0.21513404D-04  0.00000000D+00  0.00000000D+00
  0.00000000D+00 -0.37346045D-04 -0.42087321D-04 -0.35367354D-04  0.00000000D+00
 -0.21756868D-04  0.12477598D-04 -0.45848058D-04  0.61963937D-04  0.00000000D+00
  0.00000000D+00 -0.77141935D-05 -0.13084732D-04 -0.14896505D-04  0.10340367D-04
MO    7     MO 0.0        OCC NO =    1.0000000  ORB. ENERGY =  -10.408078
 -0.65041219D-02 -0.11998835D-01 -0.19369840D-01 -0.25213776D-01 -0.21514961D-01
 -0.74285990D-02  0.50015806D-03  0.23052239D-03 -0.64640885D-03 -0.35809695D-03
 -0.27456603D-03 -0.13702769D-03 -0.32940860D-03 -0.25256962D-03 -0.12604994D-03
  0.00000000D+00  0.00000000D+00  0.00000000D+00  0.17454484D-02  0.22503685D-03
  0.68123962D-03  0.00000000D+00 -0.42111224D-03 -0.16520461D-03 -0.11391847D-03
 -0.22854624D-03  0.00000000D+00  0.00000000D+00  0.53226341D+00  0.98192207D+00
  0.15851267D+01  0.20633639D+01  0.17606722D+01  0.60791780D+00 -0.19867764D-01
 -0.91570344D-02  0.25677280D-01 -0.67710423D-03 -0.51916058D-03 -0.25909751D-03
  0.26304389D-03  0.20168537D-03  0.10065513D-03  0.00000000D+00  0.00000000D+00
  0.00000000D+00 -0.37009403D-02  0.74743063D-03 -0.40717457D-03  0.00000000D+00
 -0.10217477D-01 -0.10121614D-01 -0.10582128D-01  0.21703879D-03  0.00000000D+00
  0.00000000D+00 -0.14921168D-01 -0.27526641D-01 -0.44436534D-01 -0.57843164D-01
 -0.49357676D-01 -0.17042020D-01  0.83669516D-03  0.38563203D-03 -0.10813525D-02
  0.10480078D-03  0.80354589D-04  0.40102572D-04  0.48029708D-03  0.36826133D-03
  0.18378822D-03  0.00000000D+00  0.00000000D+00  0.00000000D+00  0.18812640D-02
 -0.51080400D-03 -0.50189353D-03  0.00000000D+00  0.32221064D-04 -0.22759285D-03
  0.46076070D-04  0.91511221D-04  0.00000000D+00  0.00000000D+00  0.61157890D-04
  0.11282437D-03  0.18213351D-03  0.23708371D-03  0.20230396D-03  0.69850696D-04
 -0.53258750D-04 -0.24546909D-04  0.68832096D-04 -0.17861192D-05 -0.13694829D-05
 -0.68346796D-06  0.18957199D-04  0.14535178D-04  0.72540724D-05  0.00000000D+00