 Geometry was optimized at b3lyp/6-31g(d) level for neutr
GAUSSIAN             25 MOL ORBITALS    220 PRIMITIVES       13 NUCLEI
  C    1    (CENTRE  1)   0.03934599 -3.50985281  0.00000000  CHARGE =  6.0
  C    2    (CENTRE  2)   2.30638050 -2.15450533  0.00000000  CHARGE =  6.0
  C    3    (CENTRE  3)   2.30191697  0.47827056  0.00000000  CHARGE =  6.0
  C    4    (CENTRE  4)   0.00000000  1.77856276  0.00000000  CHARGE =  6.0
  C    5    (CENTRE  5)  -2.27949726  0.43926850  0.00000000  CHARGE =  6.0
  C    6    (CENTRE  6)  -2.24781033 -2.19799359  0.00000000  CHARGE =  6.0
  H    7    (CENTRE  7)   0.05676548 -5.56223522  0.00000000  CHARGE =  1.0
  H    8    (CENTRE  8)   4.10064711 -3.15500004  0.00000000  CHARGE =  1.0
  H    9    (CENTRE  9)   4.04858704  1.55395747  0.00000000  CHARGE =  1.0
  H   10    (CENTRE 10)  -4.06825153  1.45703153  0.00000000  CHARGE =  1.0
  H   11    (CENTRE 11)  -4.02698747 -3.22482920  0.00000000  CHARGE =  1.0
  O   12    (CENTRE 12)   0.09753821  4.36339251  0.00000000  CHARGE =  8.0
  H   13    (CENTRE 13)  -1.61308156  5.02143483  0.00000000  CHARGE =  1.0
CENTRE ASSIGNMENTS    1  1  1  1  1  1  1  1  1  1  1  1  1  1  1  1  1  1  1  1
CENTRE ASSIGNMENTS    1  1  1  1  1  1  1  1  2  2  2  2  2  2  2  2  2  2  2  2
CENTRE ASSIGNMENTS    2  2  2  2  2  2  2  2  2  2  2  2  2  2  2  2  3  3  3  3
CENTRE ASSIGNMENTS    3  3  3  3  3  3  3  3  3  3  3  3  3  3  3  3  3  3  3  3
CENTRE ASSIGNMENTS    3  3  3  3  4  4  4  4  4  4  4  4  4  4  4  4  4  4  4  4
CENTRE ASSIGNMENTS    4  4  4  4  4  4  4  4  4  4  4  4  5  5  5  5  5  5  5  5
CENTRE ASSIGNMENTS    5  5  5  5  5  5  5  5  5  5  5  5  5  5  5  5  5  5  5  5
CENTRE ASSIGNMENTS    6  6  6  6  6  6  6  6  6  6  6  6  6  6  6  6  6  6  6  6
CENTRE ASSIGNMENTS    6  6  6  6  6  6  6  6  7  7  7  7  8  8  8  8  9  9  9  9
CENTRE ASSIGNMENTS   10 10 10 10 11 11 11 11 12 12 12 12 12 12 12 12 12 12 12 12
CENTRE ASSIGNMENTS   12 12 12 12 12 12 12 12 12 12 12 12 12 12 12 12 13 13 13 13
TYPE ASSIGNMENTS      1  1  1  1  1  1  1  1  1  2  2  2  3  3  3  4  4  4  1  2
TYPE ASSIGNMENTS      3  4  5  6  7  8  9 10  1  1  1  1  1  1  1  1  1  2  2  2
TYPE ASSIGNMENTS      3  3  3  4  4  4  1  2  3  4  5  6  7  8  9 10  1  1  1  1
TYPE ASSIGNMENTS      1  1  1  1  1  2  2  2  3  3  3  4  4  4  1  2  3  4  5  6
TYPE ASSIGNMENTS      7  8  9 10  1  1  1  1  1  1  1  1  1  2  2  2  3  3  3  4
TYPE ASSIGNMENTS      4  4  1  2  3  4  5  6  7  8  9 10  1  1  1  1  1  1  1  1
TYPE ASSIGNMENTS      1  2  2  2  3  3  3  4  4  4  1  2  3  4  5  6  7  8  9 10
TYPE ASSIGNMENTS      1  1  1  1  1  1  1  1  1  2  2  2  3  3  3  4  4  4  1  2
TYPE ASSIGNMENTS      3  4  5  6  7  8  9 10  1  1  1  1  1  1  1  1  1  1  1  1
TYPE ASSIGNMENTS      1  1  1  1  1  1  1  1  1  1  1  1  1  1  1  1  1  2  2  2
TYPE ASSIGNMENTS      3  3  3  4  4  4  1  2  3  4  5  6  7  8  9 10  1  1  1  1
EXPONENTS  0.3047525D+04 0.4573695D+03 0.1039487D+03 0.2921016D+02 0.9286663D+01
EXPONENTS  0.3163927D+01 0.7868272D+01 0.1881289D+01 0.5442493D+00 0.7868272D+01
EXPONENTS  0.1881289D+01 0.5442493D+00 0.7868272D+01 0.1881289D+01 0.5442493D+00
EXPONENTS  0.7868272D+01 0.1881289D+01 0.5442493D+00 0.1687145D+00 0.1687145D+00
EXPONENTS  0.1687145D+00 0.1687145D+00 0.8000000D+00 0.8000000D+00 0.8000000D+00
EXPONENTS  0.8000000D+00 0.8000000D+00 0.8000000D+00 0.3047525D+04 0.4573695D+03
EXPONENTS  0.1039487D+03 0.2921016D+02 0.9286663D+01 0.3163927D+01 0.7868272D+01
EXPONENTS  0.1881289D+01 0.5442493D+00 0.7868272D+01 0.1881289D+01 0.5442493D+00
EXPONENTS  0.7868272D+01 0.1881289D+01 0.5442493D+00 0.7868272D+01 0.1881289D+01
EXPONENTS  0.5442493D+00 0.1687145D+00 0.1687145D+00 0.1687145D+00 0.1687145D+00
EXPONENTS  0.8000000D+00 0.8000000D+00 0.8000000D+00 0.8000000D+00 0.8000000D+00
EXPONENTS  0.8000000D+00 0.3047525D+04 0.4573695D+03 0.1039487D+03 0.2921016D+02
EXPONENTS  0.9286663D+01 0.3163927D+01 0.7868272D+01 0.1881289D+01 0.5442493D+00
EXPONENTS  0.7868272D+01 0.1881289D+01 0.5442493D+00 0.7868272D+01 0.1881289D+01
EXPONENTS  0.5442493D+00 0.7868272D+01 0.1881289D+01 0.5442493D+00 0.1687145D+00
EXPONENTS  0.1687145D+00 0.1687145D+00 0.1687145D+00 0.8000000D+00 0.8000000D+00
EXPONENTS  0.8000000D+00 0.8000000D+00 0.8000000D+00 0.8000000D+00 0.3047525D+04
EXPONENTS  0.4573695D+03 0.1039487D+03 0.2921016D+02 0.9286663D+01 0.3163927D+01
EXPONENTS  0.7868272D+01 0.1881289D+01 0.5442493D+00 0.7868272D+01 0.1881289D+01
EXPONENTS  0.5442493D+00 0.7868272D+01 0.1881289D+01 0.5442493D+00 0.7868272D+01
EXPONENTS  0.1881289D+01 0.5442493D+00 0.1687145D+00 0.1687145D+00 0.1687145D+00
EXPONENTS  0.1687145D+00 0.8000000D+00 0.8000000D+00 0.8000000D+00 0.8000000D+00
EXPONENTS  0.8000000D+00 0.8000000D+00 0.3047525D+04 0.4573695D+03 0.1039487D+03
EXPONENTS  0.2921016D+02 0.9286663D+01 0.3163927D+01 0.7868272D+01 0.1881289D+01
EXPONENTS  0.5442493D+00 0.7868272D+01 0.1881289D+01 0.5442493D+00 0.7868272D+01
EXPONENTS  0.1881289D+01 0.5442493D+00 0.7868272D+01 0.1881289D+01 0.5442493D+00
EXPONENTS  0.1687145D+00 0.1687145D+00 0.1687145D+00 0.1687145D+00 0.8000000D+00
EXPONENTS  0.8000000D+00 0.8000000D+00 0.8000000D+00 0.8000000D+00 0.8000000D+00
EXPONENTS  0.3047525D+04 0.4573695D+03 0.1039487D+03 0.2921016D+02 0.9286663D+01
EXPONENTS  0.3163927D+01 0.7868272D+01 0.1881289D+01 0.5442493D+00 0.7868272D+01
EXPONENTS  0.1881289D+01 0.5442493D+00 0.7868272D+01 0.1881289D+01 0.5442493D+00
EXPONENTS  0.7868272D+01 0.1881289D+01 0.5442493D+00 0.1687145D+00 0.1687145D+00
EXPONENTS  0.1687145D+00 0.1687145D+00 0.8000000D+00 0.8000000D+00 0.8000000D+00
EXPONENTS  0.8000000D+00 0.8000000D+00 0.8000000D+00 0.1873114D+02 0.2825394D+01
EXPONENTS  0.6401217D+00 0.1612778D+00 0.1873114D+02 0.2825394D+01 0.6401217D+00
EXPONENTS  0.1612778D+00 0.1873114D+02 0.2825394D+01 0.6401217D+00 0.1612778D+00
EXPONENTS  0.1873114D+02 0.2825394D+01 0.6401217D+00 0.1612778D+00 0.1873114D+02
EXPONENTS  0.2825394D+01 0.6401217D+00 0.1612778D+00 0.5484672D+04 0.8252349D+03
EXPONENTS  0.1880470D+03 0.5296450D+02 0.1689757D+02 0.5799635D+01 0.1553962D+02
EXPONENTS  0.3599934D+01 0.1013762D+01 0.1553962D+02 0.3599934D+01 0.1013762D+01
EXPONENTS  0.1553962D+02 0.3599934D+01 0.1013762D+01 0.1553962D+02 0.3599934D+01
EXPONENTS  0.1013762D+01 0.2700058D+00 0.2700058D+00 0.2700058D+00 0.2700058D+00
EXPONENTS  0.8000000D+00 0.8000000D+00 0.8000000D+00 0.8000000D+00 0.8000000D+00
EXPONENTS  0.8000000D+00 0.1873114D+02 0.2825394D+01 0.6401217D+00 0.1612778D+00
MO    1     MO 0.0        OCC NO =    2.0000000  ORB. ENERGY =  -19.177347
  0.80309659D-05  0.14815564D-04  0.23916914D-04  0.31132716D-04  0.26565603D-04
  0.91724642D-05 -0.30892166D-04 -0.14238171D-04  0.39925318D-04  0.29349112D-04
  0.22503038D-04  0.11230593D-04  0.36648614D-04  0.28099833D-04  0.14023786D-04
  0.00000000D+00  0.00000000D+00  0.00000000D+00 -0.15778994D-03 -0.23248065D-04
 -0.93348364D-04  0.00000000D+00 -0.25126781D-04  0.15637733D-04  0.42766935D-04
  0.20875275D-05  0.00000000D+00  0.00000000D+00  0.64320084D-05  0.11865800D-04
  0.19155080D-04  0.24934222D-04  0.21276417D-04  0.73462355D-05 -0.15674672D-04
 -0.72244421D-05  0.20258090D-04 -0.37009716D-04 -0.28376703D-04 -0.14161963D-04
  0.63586178D-04  0.48753848D-04  0.24331587D-04  0.00000000D+00  0.00000000D+00
  0.00000000D+00  0.15700193D-03 -0.49551540D-04 -0.44687003D-05  0.00000000D+00
  0.22043976D-04  0.26043435D-04  0.45391526D-04  0.43739957D-04  0.00000000D+00
  0.00000000D+00  0.40516846D-05  0.74745669D-05  0.12066269D-04  0.15706696D-04
  0.13402553D-04  0.46275793D-05 -0.55643930D-04 -0.25646237D-04  0.71914724D-04
 -0.22878530D-04 -0.17541806D-04 -0.87545904D-05  0.23276884D-04  0.17847238D-04
  0.89070228D-05  0.00000000D+00  0.00000000D+00  0.00000000D+00 -0.14874432D-03
  0.18111572D-03  0.11234047D-03  0.00000000D+00 -0.10004710D-03 -0.60003595D-04
  0.27319325D-04  0.22566499D-04  0.00000000D+00  0.00000000D+00 -0.23009590D-04
 -0.42448201D-04 -0.68524557D-04 -0.89198613D-04 -0.76113338D-04 -0.26280107D-04
 -0.63405853D-04 -0.29223700D-04  0.81946304D-04  0.96326783D-04  0.73857268D-04
  0.36859953D-04  0.55583055D-03  0.42617561D-03  0.21269150D-03  0.00000000D+00
  0.00000000D+00  0.00000000D+00 -0.58142435D-04 -0.11323409D-03 -0.65264767D-03
  0.00000000D+00 -0.71191472D-05 -0.32807212D-04 -0.82299544D-04  0.85209682D-04
  0.00000000D+00  0.00000000D+00  0.14593545D-04  0.26922240D-04  0.43460844D-04
  0.56573105D-04  0.48273933D-04  0.16667829D-04 -0.89513868D-04 -0.41256860D-04
  0.11568854D-03 -0.40208618D-04 -0.30829418D-04 -0.15386040D-04 -0.97741770D-04
 -0.74942190D-04 -0.37401405D-04  0.00000000D+00  0.00000000D+00  0.00000000D+00
 -0.53717274D-03 -0.23045535D-03  0.21192094D-03  0.00000000D+00 -0.56352911D-04
 -0.86496266D-04  0.66223319D-04 -0.21830905D-04  0.00000000D+00  0.00000000D+00
 -0.27725589D-05 -0.51148298D-05 -0.82569213D-05 -0.10748058D-04 -0.91713375D-05
 -0.31666424D-05  0.20584376D-04  0.94873200D-05 -0.26603436D-04  0.11758898D-04
  0.90159773D-05  0.44996045D-05  0.10422244D-03  0.79911153D-04  0.39881266D-04
  0.00000000D+00  0.00000000D+00  0.00000000D+00  0.34064761D-03  0.66587810D-04
  0.11639539D-03  0.00000000D+00 -0.47446553D-05  0.61104548D-04  0.36751913D-05
 -0.27145817D-04  0.00000000D+00  0.00000000D+00 -0.49981706D-05 -0.84778434D-05
 -0.96517251D-05 -0.31376042D-04  0.59102318D-06  0.10024872D-05  0.11412962D-05
 -0.24060578D-05 -0.18827874D-05 -0.31935638D-05 -0.36357595D-05 -0.11539462D-03
 -0.21731929D-04 -0.36861465D-04 -0.41965475D-04 -0.76504451D-04  0.12904147D-05
  0.21887876D-05  0.24918574D-05  0.15784937D-04  0.82564323D+00  0.15196243D+01
  0.24590389D+01  0.32324755D+01  0.27724755D+01  0.94795645D+00 -0.15836215D-01
 -0.70660882D-02  0.20866253D-01 -0.29009232D-02 -0.22350049D-02 -0.98128755D-03
 -0.14252976D-02 -0.10981150D-02 -0.48213162D-03  0.00000000D+00  0.00000000D+00
  0.00000000D+00  0.37515617D-02  0.63949649D-04 -0.34389965D-03  0.00000000D+00
 -0.92360674D-02 -0.90962353D-02 -0.91528558D-02 -0.43632172D-04  0.00000000D+00
  0.00000000D+00  0.87709628D-04  0.14877213D-03  0.16937181D-03 -0.18495338D-03
MO    2     MO 0.0        OCC NO =    2.0000000  ORB. ENERGY =  -10.247624
 -0.72650107D-04 -0.13402526D-03 -0.21635833D-03 -0.28163426D-03 -0.24031902D-03
 -0.82976384D-04  0.15379992D-03  0.70886243D-04 -0.19877243D-03 -0.28109709D-05
 -0.21552742D-05 -0.10756329D-05 -0.87658171D-04 -0.67210725D-04 -0.33542862D-04
  0.00000000D+00  0.00000000D+00  0.00000000D+00  0.10565635D-02 -0.15231120D-04
  0.54620684D-03  0.00000000D+00  0.34040498D-04 -0.36715923D-04 -0.16572959D-03
 -0.12451072D-05  0.00000000D+00  0.00000000D+00  0.31775456D-04  0.58619512D-04
  0.94630069D-04  0.12318023D-03  0.10510992D-03  0.36291928D-04 -0.65332156D-04
 -0.30111531D-04  0.84435876D-04  0.49177283D-04  0.37706021D-04  0.18817947D-04
 -0.15054044D-03 -0.11542486D-03 -0.57605094D-04  0.00000000D+00  0.00000000D+00
  0.00000000D+00 -0.12978496D-02  0.45107370D-03 -0.30575676D-03  0.00000000D+00
  0.27192520D-04  0.71634083D-04  0.26432307D-04 -0.61095322D-04  0.00000000D+00
  0.00000000D+00  0.20336871D-02  0.37517556D-02  0.60564969D-02  0.78837593D-02
  0.67272261D-02  0.23227495D-02  0.25254853D-03  0.11639939D-03 -0.32639603D-03
  0.37135281D-03  0.28472978D-03  0.14210012D-03 -0.60199933D-04 -0.46157490D-04
 -0.23035823D-04  0.00000000D+00  0.00000000D+00  0.00000000D+00  0.21698598D-02
 -0.99535076D-03 -0.45227642D-03  0.00000000D+00 -0.28433604D-03 -0.44974884D-03
 -0.36390981D-03  0.29191363D-03  0.00000000D+00  0.00000000D+00  0.53256062D+00
  0.98247034D+00  0.15860118D+01  0.20645161D+01  0.17616553D+01  0.60825724D+00
 -0.19697683D-01 -0.90786442D-02  0.25457466D-01 -0.79915843D-05 -0.61274399D-05
 -0.30580220D-05  0.11285127D-02  0.86527199D-03  0.43183136D-03  0.00000000D+00
  0.00000000D+00  0.00000000D+00 -0.36613410D-02  0.70453872D-04  0.16796483D-02
  0.00000000D+00 -0.10004006D-01 -0.92739790D-02 -0.10409199D-01  0.11987833D-03
  0.00000000D+00  0.00000000D+00  0.22578084D-02  0.41652157D-02  0.67239496D-02
  0.87525845D-02  0.74685962D-02  0.25787268D-02  0.24796480D-03  0.11428675D-03
 -0.32047198D-03 -0.40207870D-03 -0.30828844D-03 -0.15385754D-03 -0.67527668D-04
 -0.51775933D-04 -0.25839819D-04  0.00000000D+00  0.00000000D+00  0.00000000D+00
  0.22747745D-02  0.10589925D-02 -0.38108897D-03  0.00000000D+00 -0.31908686D-03
 -0.45238715D-03 -0.36748597D-03 -0.29451637D-03  0.00000000D+00  0.00000000D+00
  0.32728410D-04  0.60377526D-04  0.97468048D-04  0.12687444D-03  0.10826219D-03
  0.37380332D-04 -0.67035382D-04 -0.30896546D-04  0.86637140D-04 -0.41567390D-04
 -0.31871238D-04 -0.15905982D-04 -0.15916451D-03 -0.12203725D-03 -0.60905142D-04
  0.00000000D+00  0.00000000D+00  0.00000000D+00 -0.12882978D-02 -0.47487214D-03
 -0.29715772D-03  0.00000000D+00  0.26276385D-04  0.68993165D-04  0.26860624D-04
  0.51750937D-04  0.00000000D+00  0.00000000D+00  0.22664230D-04  0.38442824D-04
  0.43765796D-04  0.16400630D-03 -0.15814607D-04 -0.26824566D-04 -0.30538821D-04
 -0.10498207D-03  0.36759434D-04  0.62350957D-04  0.70984361D-04  0.33124005D-03
  0.33397697D-04  0.56648815D-04  0.64492674D-04  0.34485241D-03 -0.17939498D-04
 -0.30428784D-04 -0.34642095D-04 -0.11419542D-03  0.10627018D-03  0.19559387D-03
  0.31650780D-03  0.41605836D-03  0.35685084D-03  0.12201336D-03 -0.63765286D-03
 -0.28451947D-03  0.84018979D-03  0.61937754D-04  0.47719701D-04  0.20951519D-04
  0.63076994D-04  0.48597424D-04  0.21336887D-04  0.00000000D+00  0.00000000D+00
  0.00000000D+00 -0.15219236D-02  0.11390619D-04  0.75559410D-03  0.00000000D+00
  0.71804014D-03 -0.55095118D-03  0.91448795D-03 -0.24442205D-04  0.00000000D+00
  0.00000000D+00  0.35622886D-04  0.60423158D-04  0.68789629D-04 -0.55698200D-04
MO    3     MO 0.0        OCC NO =    2.0000000  ORB. ENERGY =  -10.190877
  0.14746948D-01  0.27205239D-01  0.43917691D-01  0.57167784D-01  0.48781374D-01
  0.16843036D-01 -0.29123444D-03 -0.13422969D-03  0.37639405D-03  0.33273182D-03
  0.25511766D-03  0.12732159D-03 -0.28415834D-03 -0.21787459D-03 -0.10873469D-03
  0.00000000D+00  0.00000000D+00  0.00000000D+00  0.14692646D-02 -0.23970458D-03
  0.58866211D-03  0.00000000D+00 -0.74846704D-03 -0.53775001D-03 -0.53016657D-03
  0.12876467D-03  0.00000000D+00  0.00000000D+00  0.18291240D-02  0.33743766D-02
  0.54472902D-02  0.70907532D-02  0.60505526D-02  0.20891104D-02 -0.94720026D-04
 -0.43656373D-04  0.12241703D-03  0.71043709D-04  0.54471810D-04  0.27185251D-04
  0.30683429D-04  0.23526107D-04  0.11741176D-04  0.00000000D+00  0.00000000D+00
  0.00000000D+00 -0.70302852D-03  0.26459995D-03 -0.17778759D-03  0.00000000D+00
  0.55380946D-04 -0.17578147D-04 -0.11183423D-04  0.17992266D-04  0.00000000D+00
  0.00000000D+00 -0.18485379D-03 -0.34101915D-03 -0.55051064D-03 -0.71660128D-03
 -0.61147717D-03 -0.21112837D-03  0.96324049D-04  0.44395666D-04 -0.12449008D-03
  0.52315372D-04  0.40112109D-04  0.20018754D-04  0.24420594D-04  0.18724163D-04
  0.93446696D-05  0.00000000D+00  0.00000000D+00  0.00000000D+00  0.56535380D-03
 -0.24146672D-03 -0.18944019D-03  0.00000000D+00  0.22102152D-06  0.13709727D-04
 -0.92198990D-04 -0.16932684D-04  0.00000000D+00  0.00000000D+00 -0.26850314D-03
 -0.49533587D-03 -0.79962568D-03 -0.10408750D-02 -0.88818057D-03 -0.30666741D-03
 -0.66497789D-05 -0.30648770D-05  0.85942351D-05  0.52880906D-04  0.40545725D-04
  0.20235158D-04  0.43065759D-04  0.33020092D-04  0.16479340D-04  0.00000000D+00
  0.00000000D+00  0.00000000D+00 -0.62640581D-03  0.41449430D-04  0.25245668D-03
  0.00000000D+00  0.11745581D-04  0.86733899D-06  0.18182315D-04  0.44836092D-04
  0.00000000D+00  0.00000000D+00  0.57766554D-01  0.10656801D+00  0.17203382D+00
  0.22393691D+00  0.19108577D+00  0.65977325D-01 -0.18973240D-02 -0.87447491D-03
  0.24521189D-02 -0.43139341D-04 -0.33076511D-04 -0.16507497D-04  0.46730227D-03
  0.35829774D-03  0.17881568D-03  0.00000000D+00  0.00000000D+00  0.00000000D+00
  0.12963797D-02  0.37500846D-03 -0.44521765D-03  0.00000000D+00 -0.13728462D-02
 -0.16198561D-02 -0.14015476D-02 -0.81747435D-04  0.00000000D+00  0.00000000D+00
  0.52911231D+00  0.97610889D+00  0.15757424D+01  0.20511484D+01  0.17502487D+01
  0.60431880D+00 -0.19709475D-01 -0.90840789D-02  0.25472705D-01  0.18954466D-03
  0.14533082D-03  0.72530266D-04  0.18764123D-03  0.14387139D-03  0.71801908D-04
  0.00000000D+00  0.00000000D+00  0.00000000D+00 -0.33947103D-02 -0.58882709D-03
 -0.32308148D-03  0.00000000D+00 -0.10253014D-01 -0.10181543D-01 -0.10546747D-01
 -0.13770449D-03  0.00000000D+00  0.00000000D+00  0.52538243D-05  0.89114804D-05
  0.10145405D-04  0.15055298D-03 -0.12327054D-04 -0.20909017D-04 -0.23804177D-04
 -0.63286164D-04  0.13905502D-04  0.23586363D-04  0.26852241D-04  0.94963981D-04
 -0.45719392D-05 -0.77548742D-05 -0.88286502D-05  0.15514081D-03 -0.10017116D-03
 -0.16990924D-03 -0.19343567D-03  0.18063727D-03 -0.65857077D-05 -0.12121218D-04
 -0.19614418D-04 -0.25783702D-04 -0.22114531D-04 -0.75613339D-05  0.25228497D-04
  0.11256906D-04 -0.33241794D-04  0.29363015D-04  0.22622620D-04  0.99325486D-05
  0.63966885D-04  0.49283037D-04  0.21637908D-04  0.00000000D+00  0.00000000D+00
  0.00000000D+00 -0.12989391D-04 -0.25352879D-04 -0.38816267D-04  0.00000000D+00
 -0.23321064D-04  0.14883626D-04 -0.55408598D-04  0.57606040D-04  0.00000000D+00
  0.00000000D+00 -0.62017588D-05 -0.10519357D-04 -0.11975916D-04  0.13187345D-04
MO    4     MO 0.0        OCC NO =    2.0000000  ORB. ENERGY =  -10.188876
  0.18181803D-01  0.33541876D-01  0.54146988D-01  0.70483289D-01  0.60143518D-01
  0.20766112D-01 -0.41955085D-03 -0.19337060D-03  0.54223135D-03 -0.33080510D-03
 -0.25364037D-03 -0.12658432D-03 -0.28643827D-03 -0.21962270D-03 -0.10960712D-03
  0.00000000D+00  0.00000000D+00  0.00000000D+00  0.14998380D-02  0.23293897D-03
  0.61490560D-03  0.00000000D+00 -0.82733538D-03 -0.61321973D-03 -0.60233895D-03
 -0.15120627D-03  0.00000000D+00  0.00000000D+00  0.53168520D+00  0.98085537D+00
  0.15834047D+01  0.20611224D+01  0.17587595D+01  0.60725739D+00 -0.19823599D-01
 -0.91366788D-02  0.25620201D-01 -0.22297444D-03 -0.17096266D-03 -0.85322347D-04
  0.17685186D-03  0.13559879D-03  0.67673299D-04  0.00000000D+00  0.00000000D+00
  0.00000000D+00 -0.35193254D-02  0.62718059D-03 -0.34841913D-03  0.00000000D+00
 -0.10292327D-01 -0.10199323D-01 -0.10581489D-01  0.14445760D-03  0.00000000D+00
  0.00000000D+00  0.22119052D-01  0.40805331D-01  0.65872456D-01  0.85746366D-01
  0.73167529D-01  0.25262990D-01 -0.55681772D-03 -0.25663678D-03  0.71963631D-03
  0.53841453D-04  0.41282211D-04  0.20602717D-04  0.47166414D-03  0.36164215D-03
  0.18048478D-03  0.00000000D+00  0.00000000D+00  0.00000000D+00  0.15644903D-02
 -0.42296426D-03 -0.47640987D-03  0.00000000D+00 -0.68722963D-03 -0.91761595D-03
 -0.69060496D-03  0.97899455D-04  0.00000000D+00  0.00000000D+00 -0.67638034D-04
 -0.12477897D-03 -0.20143194D-03 -0.26220454D-03 -0.22373961D-03 -0.77251909D-04
 -0.32004000D-04 -0.14750614D-04  0.41362262D-04 -0.30020778D-04 -0.23018028D-04
 -0.11487609D-04  0.27678950D-04  0.21222463D-04  0.10591496D-04  0.00000000D+00
  0.00000000D+00  0.00000000D+00 -0.74582350D-03 -0.85906114D-04  0.28899332D-03
  0.00000000D+00  0.45396982D-04  0.22514787D-04  0.32887255D-04 -0.66566875D-04
  0.00000000D+00  0.00000000D+00 -0.47351930D-02 -0.87355066D-02 -0.14101816D-01
 -0.18356375D-01 -0.15663528D-01 -0.54082397D-02  0.26512318D-03  0.12219503D-03
 -0.34264763D-03 -0.53012678D-04 -0.40646759D-04 -0.20285582D-04  0.20601203D-04
  0.15795696D-04  0.78831592D-05  0.00000000D+00  0.00000000D+00  0.00000000D+00
  0.60905246D-03  0.25647035D-03 -0.20118054D-03  0.00000000D+00  0.84087030D-04
  0.10253741D-03  0.13953898D-06  0.10503705D-04  0.00000000D+00  0.00000000D+00
 -0.18046756D-02 -0.33292741D-02 -0.53744807D-02 -0.69959770D-02 -0.59696799D-02
 -0.20611870D-02  0.34961277D-04  0.16113620D-04 -0.45184274D-04 -0.75695753D-04
 -0.58038702D-04 -0.28965380D-04  0.36696784D-04  0.28136766D-04  0.14042218D-04
  0.00000000D+00  0.00000000D+00  0.00000000D+00 -0.72840574D-03 -0.27434167D-03
 -0.19598382D-03  0.00000000D+00  0.12670017D-03  0.55551218D-04  0.67237773D-04
 -0.14825072D-04  0.00000000D+00  0.00000000D+00  0.55544520D-05  0.94214019D-05
  0.10725933D-04  0.15774229D-03 -0.10118021D-03 -0.17162079D-03 -0.19538421D-03
  0.17113590D-03  0.24246399D-05  0.41126483D-05  0.46821047D-05  0.14962566D-03
  0.16046653D-04  0.27218160D-04  0.30986913D-04  0.94797322D-04 -0.12196864D-04
 -0.20688190D-04 -0.23552773D-04 -0.71221599D-04 -0.88968764D-05 -0.16375002D-04
 -0.26497844D-04 -0.34832158D-04 -0.29875339D-04 -0.10214886D-04  0.25462728D-04
  0.11361420D-04 -0.33550424D-04 -0.68634959D-04 -0.52879536D-04 -0.23216964D-04
  0.46780220D-04  0.36041638D-04  0.15824220D-04  0.00000000D+00  0.00000000D+00
  0.00000000D+00  0.20396328D-06  0.51432294D-04 -0.39427470D-04  0.00000000D+00
 -0.56561448D-04  0.70648327D-05 -0.52639654D-04 -0.65493546D-04  0.00000000D+00
  0.00000000D+00  0.55702297D-05  0.94481638D-05  0.10756401D-04 -0.42535342D-06
MO    5     MO 0.0        OCC NO =    2.0000000  ORB. ENERGY =  -10.188346
 -0.20156073D-02 -0.37184019D-02 -0.60026536D-02 -0.78136714D-02 -0.66674200D-02
 -0.23020999D-02 -0.58176516D-06 -0.26813503D-06  0.75187861D-06  0.18069967D-04
  0.13854905D-04  0.69145685D-05  0.37570806D-06  0.28806911D-06  0.14376667D-06
  0.00000000D+00  0.00000000D+00  0.00000000D+00 -0.95098081D-03  0.47821709D-04
 -0.44875948D-03  0.00000000D+00  0.14435320D-03  0.13584489D-03  0.11278051D-03
 -0.78758757D-04  0.00000000D+00  0.00000000D+00  0.45343482D-02  0.83649871D-02
  0.13503683D-01  0.17577783D-01  0.14999154D-01  0.51788474D-02 -0.70787086D-04
 -0.32625703D-04  0.91485877D-04  0.12978493D-04  0.99510849D-05  0.49662888D-05
 -0.33861774D-04 -0.25963061D-04 -0.12957387D-04  0.00000000D+00  0.00000000D+00
  0.00000000D+00  0.78592997D-03 -0.30650483D-03  0.20657553D-03  0.00000000D+00
 -0.10849692D-03 -0.86257045D-04 -0.19380234D-03  0.33805628D-04  0.00000000D+00
  0.00000000D+00  0.13750716D-03  0.25367385D-03  0.40950825D-03  0.53305807D-03
  0.45485941D-03  0.15705202D-03 -0.34997110D-04 -0.16130136D-04  0.45230585D-04
  0.30018404D-04  0.23016208D-04  0.11486701D-04 -0.29046027D-05 -0.22270651D-05
 -0.11114616D-05  0.00000000D+00  0.00000000D+00  0.00000000D+00 -0.70378346D-03
  0.28407128D-03  0.27156903D-03  0.00000000D+00  0.11201824D-03  0.39716812D-04
  0.30333523D-04 -0.66736982D-04  0.00000000D+00  0.00000000D+00 -0.25159288D-02
 -0.46413974D-02 -0.74926545D-02 -0.97532099D-02 -0.83224317D-02 -0.28735357D-02
  0.35038527D-03  0.16149225D-03 -0.45284113D-03  0.39826357D-03  0.30536324D-03
  0.15239766D-03  0.22975136D-03  0.17615877D-03  0.87915574D-04  0.00000000D+00
  0.00000000D+00  0.00000000D+00  0.17500565D-02 -0.39748886D-03 -0.64661838D-03
  0.00000000D+00 -0.49959545D-03 -0.29825384D-03 -0.20189588D-03 -0.15879918D-03
  0.00000000D+00  0.00000000D+00  0.52931641D+00  0.97648542D+00  0.15763502D+01
  0.20519396D+01  0.17509238D+01  0.60455192D+00 -0.19858190D-01 -0.91526215D-02
  0.25664906D-01  0.31504558D-03  0.24155697D-03  0.12055386D-03 -0.74269638D-04
 -0.56945248D-04 -0.28419670D-04  0.00000000D+00  0.00000000D+00  0.00000000D+00
 -0.38917003D-02 -0.74690669D-03  0.35203879D-03  0.00000000D+00 -0.10240800D-01
 -0.10137987D-01 -0.10533145D-01  0.15575534D-03  0.00000000D+00  0.00000000D+00
 -0.58002167D-01 -0.10700267D+00 -0.17273549D+00 -0.22485028D+00 -0.19186515D+00
 -0.66246427D-01  0.24267819D-02  0.11185016D-02 -0.31363952D-02 -0.10822827D-03
 -0.82982572D-04 -0.41414119D-04 -0.44629430D-03 -0.34219016D-03 -0.17077687D-03
  0.00000000D+00  0.00000000D+00  0.00000000D+00  0.20285193D-02  0.52626867D-03
  0.54154827D-03  0.00000000D+00  0.86995990D-03  0.64060223D-03  0.91434053D-03
  0.12373757D-03  0.00000000D+00  0.00000000D+00 -0.16540749D-04 -0.28056241D-04
 -0.31941038D-04 -0.10512121D-03  0.11025226D-04  0.18700870D-04  0.21290280D-04
  0.10288110D-03 -0.20129292D-04 -0.34143089D-04 -0.38870700D-04 -0.89472281D-04
 -0.98329690D-04 -0.16678576D-03 -0.18987970D-03  0.15332230D-03  0.21994810D-04
  0.37307361D-04  0.42473112D-04  0.13411244D-03 -0.15992466D-04 -0.29434675D-04
 -0.47630860D-04 -0.62612098D-04 -0.53702033D-04 -0.18361637D-04  0.83235137D-04
  0.37139356D-04 -0.10967302D-03 -0.77995665D-04 -0.60091455D-04 -0.26383385D-04
  0.85853358D-05  0.66145384D-05  0.29041386D-05  0.00000000D+00  0.00000000D+00
  0.00000000D+00  0.21212252D-03  0.79923881D-04 -0.40521921D-04  0.00000000D+00
 -0.33190610D-04  0.38300680D-05 -0.90019587D-04 -0.23580856D-06  0.00000000D+00
  0.00000000D+00  0.54108799D-05  0.91778764D-05  0.10448688D-04  0.14960300D-04
MO    6     MO 0.0        OCC NO =    2.0000000  ORB. ENERGY =  -10.182195
 -0.53540497D-02 -0.98771762D-02 -0.15944825D-01 -0.20755424D-01 -0.17710641D-01
 -0.61150588D-02  0.14178658D-03  0.65349305D-04 -0.18324627D-03 -0.42162050D-04
 -0.32327186D-04 -0.16133531D-04 -0.24098830D-04 -0.18477454D-04 -0.92215448D-05
  0.00000000D+00  0.00000000D+00  0.00000000D+00 -0.83083766D-03 -0.11541343D-04
 -0.40385389D-03  0.00000000D+00  0.17866408D-03  0.18669569D-03  0.16209165D-03
  0.71468777D-04  0.00000000D+00  0.00000000D+00 -0.22203761D-01 -0.40961603D-01
 -0.66124728D-01 -0.86074748D-01 -0.73447739D-01 -0.25359739D-01  0.10905970D-02
  0.50265518D-03 -0.14094976D-02  0.98033989D-04  0.75166245D-04  0.37513224D-04
 -0.44815170D-03 -0.34361430D-03 -0.17148762D-03  0.00000000D+00  0.00000000D+00
  0.00000000D+00  0.18023814D-02 -0.48023383D-03  0.52341083D-03  0.00000000D+00
  0.17714461D-03 -0.64154424D-04  0.20196978D-03 -0.96865816D-04  0.00000000D+00
  0.00000000D+00  0.53200044D+00  0.98143693D+00  0.15843435D+01  0.20623445D+01
  0.17598023D+01  0.60761744D+00 -0.19944329D-01 -0.91923229D-02  0.25776233D-01
 -0.42411030D-03 -0.32518087D-03 -0.16228805D-03 -0.12936632D-03 -0.99189888D-04
 -0.49502706D-04  0.00000000D+00  0.00000000D+00  0.00000000D+00 -0.37595573D-02
  0.70842118D-03  0.36687495D-03  0.00000000D+00 -0.10308906D-01 -0.10210335D-01
 -0.10611433D-01 -0.14987483D-03  0.00000000D+00  0.00000000D+00 -0.23029409D-02
 -0.42484763D-02 -0.68583580D-02 -0.89275443D-02 -0.76178898D-02 -0.26302743D-02
  0.33673871D-03  0.15520257D-03 -0.43520419D-03 -0.40319377D-03 -0.30914341D-03
 -0.15428423D-03  0.22270313D-03  0.17075463D-03  0.85218530D-04  0.00000000D+00
  0.00000000D+00  0.00000000D+00  0.17165396D-02  0.34185136D-03 -0.61116609D-03
  0.00000000D+00 -0.51201809D-03 -0.30660163D-03 -0.20622912D-03  0.13949735D-03
  0.00000000D+00  0.00000000D+00  0.93111393D-04  0.17177234D-03  0.27729382D-03
  0.36095416D-03  0.30800284D-03  0.10634598D-03 -0.30113307D-04 -0.13879195D-04
  0.38918713D-04 -0.31963295D-04 -0.24507428D-04 -0.12230924D-04 -0.60767636D-05
 -0.46592769D-05 -0.23253057D-05  0.00000000D+00  0.00000000D+00  0.00000000D+00
 -0.69819229D-03 -0.29010912D-03  0.22174505D-03  0.00000000D+00  0.11371283D-03
  0.40983761D-04  0.24079028D-04  0.58431908D-04  0.00000000D+00  0.00000000D+00
  0.35743399D-03  0.65939591D-03  0.10644695D-02  0.13856230D-02  0.11823546D-02
  0.40823862D-03  0.80690808D-04  0.37190320D-04 -0.10428554D-03 -0.21375915D-04
 -0.16389695D-04 -0.81796067D-05 -0.36860486D-04 -0.28262283D-04 -0.14104860D-04
  0.00000000D+00  0.00000000D+00  0.00000000D+00  0.73459455D-03  0.29669154D-03
  0.18771906D-03  0.00000000D+00 -0.18546807D-04 -0.46010364D-05 -0.10828819D-03
 -0.35887478D-04  0.00000000D+00  0.00000000D+00 -0.15053435D-04 -0.25533475D-04
 -0.29068959D-04 -0.95589011D-04  0.14528993D-04  0.24643922D-04  0.28056234D-04
  0.14321348D-03 -0.98971779D-04 -0.16787487D-03 -0.19111960D-03  0.15580184D-03
 -0.16436899D-04 -0.27880092D-04 -0.31740499D-04 -0.86224267D-04  0.12154811D-04
  0.20616860D-04  0.23471566D-04  0.99492531D-04 -0.66871024D-05 -0.12307838D-04
 -0.19916405D-04 -0.26180672D-04 -0.22455010D-04 -0.76777494D-05  0.65088635D-04
  0.29042422D-04 -0.85762661D-04  0.20729988D-04  0.15971338D-04  0.70122778D-05
 -0.30575130D-05 -0.23556489D-05 -0.10342568D-05  0.00000000D+00  0.00000000D+00
  0.00000000D+00  0.14026831D-03 -0.37792946D-04 -0.34845628D-04  0.00000000D+00
  0.25183758D-04  0.45250214D-04 -0.59515503D-04 -0.11767483D-04  0.00000000D+00
  0.00000000D+00 -0.31101305D-05 -0.52753701D-05 -0.60058224D-05  0.35263074D-04
MO    7     MO 0.0        OCC NO =    2.0000000  ORB. ENERGY =  -10.181045
  0.53194822D+00  0.98134060D+00  0.15841880D+01  0.20621421D+01  0.17596296D+01
  0.60755781D+00 -0.19899617D-01 -0.91717153D-02  0.25718447D-01 -0.10579961D-04
 -0.81120429D-05 -0.40484779D-05  0.35734690D-03  0.27399094D-03  0.13674068D-03
  0.00000000D+00  0.00000000D+00  0.00000000D+00 -0.37838495D-02  0.10010550D-04
 -0.83780351D-03  0.00000000D+00 -0.10133265D-01 -0.10307940D-01 -0.10563340D-01
 -0.61625289D-06  0.00000000D+00  0.00000000D+00 -0.18684020D-01 -0.34468368D-01
 -0.55642634D-01 -0.72430176D-01 -0.61804801D-01 -0.21339712D-01  0.96276258D-03
  0.44373640D-03 -0.12442832D-02  0.42381580D-03  0.32495507D-03  0.16217535D-03
  0.15705195D-03  0.12041748D-03  0.60096761D-04  0.00000000D+00  0.00000000D+00
  0.00000000D+00  0.19045019D-02 -0.72304102D-03  0.15511441D-03  0.00000000D+00
 -0.36277694D-04 -0.77679034D-05  0.12803958D-03 -0.27498558D-03  0.00000000D+00
  0.00000000D+00  0.46433190D-02  0.85660169D-02  0.13828207D-01  0.18000217D-01
  0.15359618D-01  0.53033069D-02 -0.23854452D-03 -0.10994495D-03  0.30829712D-03
 -0.32955650D-05 -0.25268302D-05 -0.12610654D-05  0.24232794D-04  0.18580169D-04
  0.92728067D-05  0.00000000D+00  0.00000000D+00  0.00000000D+00 -0.97113263D-03