 Geometry was optimized at b3lyp/6-31g(d) level for neutr
GAUSSIAN             51 MOL ORBITALS    220 PRIMITIVES       13 NUCLEI
  C    1    (CENTRE  1)   0.03934599 -3.50985281  0.00000000  CHARGE =  6.0
  C    2    (CENTRE  2)   2.30638050 -2.15450533  0.00000000  CHARGE =  6.0
  C    3    (CENTRE  3)   2.30191697  0.47827056  0.00000000  CHARGE =  6.0
  C    4    (CENTRE  4)   0.00000000  1.77856276  0.00000000  CHARGE =  6.0
  C    5    (CENTRE  5)  -2.27949726  0.43926850  0.00000000  CHARGE =  6.0
  C    6    (CENTRE  6)  -2.24781033 -2.19799359  0.00000000  CHARGE =  6.0
  H    7    (CENTRE  7)   0.05676548 -5.56223522  0.00000000  CHARGE =  1.0
  H    8    (CENTRE  8)   4.10064711 -3.15500004  0.00000000  CHARGE =  1.0
  H    9    (CENTRE  9)   4.04858704  1.55395747  0.00000000  CHARGE =  1.0
  H   10    (CENTRE 10)  -4.06825153  1.45703153  0.00000000  CHARGE =  1.0
  H   11    (CENTRE 11)  -4.02698747 -3.22482920  0.00000000  CHARGE =  1.0
  O   12    (CENTRE 12)   0.09753821  4.36339251  0.00000000  CHARGE =  8.0
  H   13    (CENTRE 13)  -1.61308156  5.02143483  0.00000000  CHARGE =  1.0
CENTRE ASSIGNMENTS    1  1  1  1  1  1  1  1  1  1  1  1  1  1  1  1  1  1  1  1
CENTRE ASSIGNMENTS    1  1  1  1  1  1  1  1  2  2  2  2  2  2  2  2  2  2  2  2
CENTRE ASSIGNMENTS    2  2  2  2  2  2  2  2  2  2  2  2  2  2  2  2  3  3  3  3
CENTRE ASSIGNMENTS    3  3  3  3  3  3  3  3  3  3  3  3  3  3  3  3  3  3  3  3
CENTRE ASSIGNMENTS    3  3  3  3  4  4  4  4  4  4  4  4  4  4  4  4  4  4  4  4
CENTRE ASSIGNMENTS    4  4  4  4  4  4  4  4  4  4  4  4  5  5  5  5  5  5  5  5
CENTRE ASSIGNMENTS    5  5  5  5  5  5  5  5  5  5  5  5  5  5  5  5  5  5  5  5
CENTRE ASSIGNMENTS    6  6  6  6  6  6  6  6  6  6  6  6  6  6  6  6  6  6  6  6
CENTRE ASSIGNMENTS    6  6  6  6  6  6  6  6  7  7  7  7  8  8  8  8  9  9  9  9
CENTRE ASSIGNMENTS   10 10 10 10 11 11 11 11 12 12 12 12 12 12 12 12 12 12 12 12
CENTRE ASSIGNMENTS   12 12 12 12 12 12 12 12 12 12 12 12 12 12 12 12 13 13 13 13
TYPE ASSIGNMENTS      1  1  1  1  1  1  1  1  1  2  2  2  3  3  3  4  4  4  1  2
TYPE ASSIGNMENTS      3  4  5  6  7  8  9 10  1  1  1  1  1  1  1  1  1  2  2  2
TYPE ASSIGNMENTS      3  3  3  4  4  4  1  2  3  4  5  6  7  8  9 10  1  1  1  1
TYPE ASSIGNMENTS      1  1  1  1  1  2  2  2  3  3  3  4  4  4  1  2  3  4  5  6
TYPE ASSIGNMENTS      7  8  9 10  1  1  1  1  1  1  1  1  1  2  2  2  3  3  3  4
TYPE ASSIGNMENTS      4  4  1  2  3  4  5  6  7  8  9 10  1  1  1  1  1  1  1  1
TYPE ASSIGNMENTS      1  2  2  2  3  3  3  4  4  4  1  2  3  4  5  6  7  8  9 10
TYPE ASSIGNMENTS      1  1  1  1  1  1  1  1  1  2  2  2  3  3  3  4  4  4  1  2
TYPE ASSIGNMENTS      3  4  5  6  7  8  9 10  1  1  1  1  1  1  1  1  1  1  1  1
TYPE ASSIGNMENTS      1  1  1  1  1  1  1  1  1  1  1  1  1  1  1  1  1  2  2  2
TYPE ASSIGNMENTS      3  3  3  4  4  4  1  2  3  4  5  6  7  8  9 10  1  1  1  1
EXPONENTS  0.3047525D+04 0.4573695D+03 0.1039487D+03 0.2921016D+02 0.9286663D+01
EXPONENTS  0.3163927D+01 0.7868272D+01 0.1881289D+01 0.5442493D+00 0.7868272D+01
EXPONENTS  0.1881289D+01 0.5442493D+00 0.7868272D+01 0.1881289D+01 0.5442493D+00
EXPONENTS  0.7868272D+01 0.1881289D+01 0.5442493D+00 0.1687145D+00 0.1687145D+00
EXPONENTS  0.1687145D+00 0.1687145D+00 0.8000000D+00 0.8000000D+00 0.8000000D+00
EXPONENTS  0.8000000D+00 0.8000000D+00 0.8000000D+00 0.3047525D+04 0.4573695D+03
EXPONENTS  0.1039487D+03 0.2921016D+02 0.9286663D+01 0.3163927D+01 0.7868272D+01
EXPONENTS  0.1881289D+01 0.5442493D+00 0.7868272D+01 0.1881289D+01 0.5442493D+00
EXPONENTS  0.7868272D+01 0.1881289D+01 0.5442493D+00 0.7868272D+01 0.1881289D+01
EXPONENTS  0.5442493D+00 0.1687145D+00 0.1687145D+00 0.1687145D+00 0.1687145D+00
EXPONENTS  0.8000000D+00 0.8000000D+00 0.8000000D+00 0.8000000D+00 0.8000000D+00
EXPONENTS  0.8000000D+00 0.3047525D+04 0.4573695D+03 0.1039487D+03 0.2921016D+02
EXPONENTS  0.9286663D+01 0.3163927D+01 0.7868272D+01 0.1881289D+01 0.5442493D+00
EXPONENTS  0.7868272D+01 0.1881289D+01 0.5442493D+00 0.7868272D+01 0.1881289D+01
EXPONENTS  0.5442493D+00 0.7868272D+01 0.1881289D+01 0.5442493D+00 0.1687145D+00
EXPONENTS  0.1687145D+00 0.1687145D+00 0.1687145D+00 0.8000000D+00 0.8000000D+00
EXPONENTS  0.8000000D+00 0.8000000D+00 0.8000000D+00 0.8000000D+00 0.3047525D+04
EXPONENTS  0.4573695D+03 0.1039487D+03 0.2921016D+02 0.9286663D+01 0.3163927D+01
EXPONENTS  0.7868272D+01 0.1881289D+01 0.5442493D+00 0.7868272D+01 0.1881289D+01
EXPONENTS  0.5442493D+00 0.7868272D+01 0.1881289D+01 0.5442493D+00 0.7868272D+01
EXPONENTS  0.1881289D+01 0.5442493D+00 0.1687145D+00 0.1687145D+00 0.1687145D+00
EXPONENTS  0.1687145D+00 0.8000000D+00 0.8000000D+00 0.8000000D+00 0.8000000D+00
EXPONENTS  0.8000000D+00 0.8000000D+00 0.3047525D+04 0.4573695D+03 0.1039487D+03
EXPONENTS  0.2921016D+02 0.9286663D+01 0.3163927D+01 0.7868272D+01 0.1881289D+01
EXPONENTS  0.5442493D+00 0.7868272D+01 0.1881289D+01 0.5442493D+00 0.7868272D+01
EXPONENTS  0.1881289D+01 0.5442493D+00 0.7868272D+01 0.1881289D+01 0.5442493D+00
EXPONENTS  0.1687145D+00 0.1687145D+00 0.1687145D+00 0.1687145D+00 0.8000000D+00
EXPONENTS  0.8000000D+00 0.8000000D+00 0.8000000D+00 0.8000000D+00 0.8000000D+00
EXPONENTS  0.3047525D+04 0.4573695D+03 0.1039487D+03 0.2921016D+02 0.9286663D+01
EXPONENTS  0.3163927D+01 0.7868272D+01 0.1881289D+01 0.5442493D+00 0.7868272D+01
EXPONENTS  0.1881289D+01 0.5442493D+00 0.7868272D+01 0.1881289D+01 0.5442493D+00
EXPONENTS  0.7868272D+01 0.1881289D+01 0.5442493D+00 0.1687145D+00 0.1687145D+00
EXPONENTS  0.1687145D+00 0.1687145D+00 0.8000000D+00 0.8000000D+00 0.8000000D+00
EXPONENTS  0.8000000D+00 0.8000000D+00 0.8000000D+00 0.1873114D+02 0.2825394D+01
EXPONENTS  0.6401217D+00 0.1612778D+00 0.1873114D+02 0.2825394D+01 0.6401217D+00
EXPONENTS  0.1612778D+00 0.1873114D+02 0.2825394D+01 0.6401217D+00 0.1612778D+00
EXPONENTS  0.1873114D+02 0.2825394D+01 0.6401217D+00 0.1612778D+00 0.1873114D+02
EXPONENTS  0.2825394D+01 0.6401217D+00 0.1612778D+00 0.5484672D+04 0.8252349D+03
EXPONENTS  0.1880470D+03 0.5296450D+02 0.1689757D+02 0.5799635D+01 0.1553962D+02
EXPONENTS  0.3599934D+01 0.1013762D+01 0.1553962D+02 0.3599934D+01 0.1013762D+01
EXPONENTS  0.1553962D+02 0.3599934D+01 0.1013762D+01 0.1553962D+02 0.3599934D+01
EXPONENTS  0.1013762D+01 0.2700058D+00 0.2700058D+00 0.2700058D+00 0.2700058D+00
EXPONENTS  0.8000000D+00 0.8000000D+00 0.8000000D+00 0.8000000D+00 0.8000000D+00
EXPONENTS  0.8000000D+00 0.1873114D+02 0.2825394D+01 0.6401217D+00 0.1612778D+00
MO    1     MO 0.0        OCC NO =    1.0000000  ORB. ENERGY =  -18.989739
  0.80339557D-05  0.14821079D-04  0.23925818D-04  0.31144306D-04  0.26575492D-04
  0.91758789D-05 -0.30849368D-04 -0.14218446D-04  0.39870005D-04  0.29134640D-04
  0.22338594D-04  0.11148524D-04  0.36843782D-04  0.28249475D-04  0.14098468D-04
  0.00000000D+00  0.00000000D+00  0.00000000D+00 -0.15764218D-03 -0.23116024D-04
 -0.92813419D-04  0.00000000D+00 -0.24903705D-04  0.15696205D-04  0.42893489D-04
  0.20725683D-05  0.00000000D+00  0.00000000D+00  0.65419082D-05  0.12068543D-04
  0.19482371D-04  0.25360258D-04  0.21639954D-04  0.74717561D-05 -0.16039029D-04
 -0.73923740D-05  0.20728988D-04 -0.37221806D-04 -0.28539320D-04 -0.14243121D-04
  0.64104625D-04  0.49151361D-04  0.24529974D-04  0.00000000D+00  0.00000000D+00
  0.00000000D+00  0.15611098D-03 -0.49449106D-04 -0.50569512D-05  0.00000000D+00
  0.22304465D-04  0.25620402D-04  0.46088603D-04  0.42793736D-04  0.00000000D+00
  0.00000000D+00  0.42800090D-05  0.78957808D-05  0.12746238D-04  0.16591815D-04
  0.14157826D-04  0.48883571D-05 -0.56478330D-04 -0.26030810D-04  0.72993110D-04
 -0.23531346D-04 -0.18042344D-04 -0.90043940D-05  0.25191257D-04  0.19315058D-04
  0.96395678D-05  0.00000000D+00  0.00000000D+00  0.00000000D+00 -0.15050095D-03
  0.18279082D-03  0.11208200D-03  0.00000000D+00 -0.10171907D-03 -0.58142067D-04
  0.29301254D-04  0.19600257D-04  0.00000000D+00  0.00000000D+00 -0.22992543D-04
 -0.42416751D-04 -0.68473789D-04 -0.89132527D-04 -0.76056947D-04 -0.26260636D-04
 -0.57144182D-04 -0.26337701D-04  0.73853663D-04  0.95647891D-04  0.73336737D-04
  0.36600171D-04  0.55887112D-03  0.42850692D-03  0.21385499D-03  0.00000000D+00
  0.00000000D+00  0.00000000D+00 -0.61873835D-04 -0.11260211D-03 -0.65848832D-03
  0.00000000D+00 -0.73239353D-05 -0.10936397D-04 -0.80327052D-04  0.86180997D-04
  0.00000000D+00  0.00000000D+00  0.14682463D-04  0.27086277D-04  0.43725649D-04
  0.56917803D-04  0.48568065D-04  0.16769386D-04 -0.89733978D-04 -0.41358308D-04
  0.11597301D-03 -0.39358684D-04 -0.30177743D-04 -0.15060809D-04 -0.95275150D-04
 -0.73050942D-04 -0.36457540D-04  0.00000000D+00  0.00000000D+00  0.00000000D+00
 -0.53614334D-03 -0.23209687D-03  0.21130815D-03  0.00000000D+00 -0.59066064D-04
 -0.83532014D-04  0.67612600D-04 -0.18829231D-04  0.00000000D+00  0.00000000D+00
 -0.25995714D-05 -0.47957016D-05 -0.77417493D-05 -0.10077457D-04 -0.85991126D-05
 -0.29690669D-05  0.19974406D-04  0.92061855D-05 -0.25815105D-04  0.12232254D-04
  0.93789168D-05  0.46807368D-05  0.10426950D-03  0.79947236D-04  0.39899274D-04
  0.00000000D+00  0.00000000D+00  0.00000000D+00  0.33868051D-03  0.66406650D-04
  0.11511087D-03  0.00000000D+00 -0.42601889D-05  0.60233596D-04  0.47047093D-05
 -0.26055718D-04  0.00000000D+00  0.00000000D+00 -0.49019306D-05 -0.83146021D-05
 -0.94658806D-05 -0.31241027D-04  0.60264624D-06  0.10222021D-05  0.11637409D-05
 -0.26447601D-05 -0.17398251D-05 -0.29510727D-05 -0.33596919D-05 -0.11589512D-03
 -0.21508710D-04 -0.36482844D-04 -0.41534428D-04 -0.77713205D-04  0.12870416D-05
  0.21830662D-05  0.24853437D-05  0.15469193D-04  0.82564122D+00  0.15196206D+01
  0.24590330D+01  0.32324676D+01  0.27724687D+01  0.94795414D+00 -0.15826560D-01
 -0.70617804D-02  0.20853532D-01 -0.28746599D-02 -0.22147704D-02 -0.97240352D-03
 -0.11423113D-02 -0.88008931D-03 -0.38640661D-03  0.00000000D+00  0.00000000D+00
  0.00000000D+00  0.37675736D-02  0.63601328D-04 -0.35901150D-03  0.00000000D+00
 -0.92459663D-02 -0.91063291D-02 -0.91636523D-02 -0.42751947D-04  0.00000000D+00
  0.00000000D+00  0.86795632D-04  0.14722182D-03  0.16760684D-03 -0.18250028D-03
MO    2     MO 0.0        OCC NO =    1.0000000  ORB. ENERGY =  -10.027897
 -0.72212072D-04 -0.13321717D-03 -0.21505382D-03 -0.27993618D-03 -0.23887005D-03
 -0.82476087D-04  0.15431274D-03  0.71122600D-04 -0.19943519D-03 -0.23508189D-05
 -0.18024589D-05 -0.89955329D-06 -0.82543890D-04 -0.63289419D-04 -0.31585856D-04
  0.00000000D+00  0.00000000D+00  0.00000000D+00  0.10714906D-02 -0.15155076D-04
  0.54994696D-03  0.00000000D+00  0.35282568D-04 -0.34957988D-04 -0.16455903D-03
 -0.90825053D-06  0.00000000D+00  0.00000000D+00  0.26459953D-04  0.48813446D-04
  0.78800038D-04  0.10257424D-03  0.87526781D-04  0.30220894D-04 -0.68318734D-04
 -0.31488042D-04  0.88295756D-04  0.44354133D-04  0.34007936D-04  0.16972343D-04
 -0.14482716D-03 -0.11104428D-03 -0.55418878D-04  0.00000000D+00  0.00000000D+00
  0.00000000D+00 -0.12992463D-02  0.46052238D-03 -0.30464470D-03  0.00000000D+00
  0.26242294D-04  0.73987513D-04  0.30568938D-04 -0.61666380D-04  0.00000000D+00
  0.00000000D+00  0.14331401D-02  0.26438636D-02  0.42680156D-02  0.55556882D-02
  0.47406788D-02  0.16368425D-02  0.27937164D-03  0.12876214D-03 -0.36106247D-03
  0.35881291D-03  0.27511498D-03  0.13730166D-03 -0.57998154D-04 -0.44469306D-04
 -0.22193300D-04  0.00000000D+00  0.00000000D+00  0.00000000D+00  0.21634977D-02
 -0.99956329D-03 -0.44544960D-03  0.00000000D+00 -0.24000586D-03 -0.43393388D-03
 -0.34957300D-03  0.26339781D-03  0.00000000D+00  0.00000000D+00  0.53258931D+00
  0.98252329D+00  0.15860972D+01  0.20646273D+01  0.17617502D+01  0.60829002D+00
 -0.19578251D-01 -0.90235981D-02  0.25303111D-01 -0.18616546D-04 -0.14273986D-04
 -0.71237196D-05  0.15462041D-02  0.11855312D-02  0.59166318D-03  0.00000000D+00
  0.00000000D+00  0.00000000D+00 -0.36482440D-02  0.72238918D-04  0.16641321D-02
  0.00000000D+00 -0.99293882D-02 -0.90679163D-02 -0.10341826D-01  0.13271217D-03
  0.00000000D+00  0.00000000D+00  0.15728164D-02  0.29015392D-02  0.46839839D-02
  0.60971553D-02  0.52027137D-02  0.17963720D-02  0.27658028D-03  0.12747560D-03
 -0.35745488D-03 -0.39375539D-03 -0.30190666D-03 -0.15067258D-03 -0.67136741D-04
 -0.51476194D-04 -0.25690229D-04  0.00000000D+00  0.00000000D+00  0.00000000D+00
  0.22687831D-02  0.10623318D-02 -0.37325076D-03  0.00000000D+00 -0.27984485D-03
 -0.43543943D-03 -0.35107390D-03 -0.27084790D-03  0.00000000D+00  0.00000000D+00
  0.27149475D-04  0.50085480D-04  0.80853494D-04  0.10524723D-03  0.89807648D-04
  0.31008423D-04 -0.69459470D-04 -0.32013806D-04  0.89770055D-04 -0.37444637D-04
 -0.28710172D-04 -0.14328388D-04 -0.15329050D-03 -0.11753343D-03 -0.58657420D-04
  0.00000000D+00  0.00000000D+00  0.00000000D+00 -0.12881190D-02 -0.48335189D-03
 -0.29560244D-03  0.00000000D+00  0.25490985D-04  0.71485564D-04  0.30445683D-04
  0.52072461D-04  0.00000000D+00  0.00000000D+00  0.22349493D-04  0.37908970D-04
  0.43158022D-04  0.16456764D-03 -0.16800220D-04 -0.28496353D-04 -0.32442091D-04
 -0.10876439D-03  0.36374023D-04  0.61697228D-04  0.70240113D-04  0.33298537D-03
  0.32870804D-04  0.55755105D-04  0.63475216D-04  0.34633686D-03 -0.18841782D-04
 -0.31959229D-04 -0.36384453D-04 -0.11755573D-03  0.10775768D-03  0.19833165D-03
  0.32093804D-03  0.42188204D-03  0.36184577D-03  0.12372121D-03 -0.65610901D-03
 -0.29275456D-03  0.86450814D-03  0.67353971D-04  0.51892604D-04  0.22783648D-04
  0.11939360D-03  0.91986335D-04  0.40386956D-04  0.00000000D+00  0.00000000D+00
  0.00000000D+00 -0.15410687D-02  0.10736290D-04  0.79119372D-03  0.00000000D+00
  0.74719431D-03 -0.66048083D-03  0.94482025D-03 -0.36458056D-04  0.00000000D+00
  0.00000000D+00  0.35677280D-04  0.60515419D-04  0.68894665D-04 -0.57169808D-04
MO    3     MO 0.0        OCC NO =    1.0000000  ORB. ENERGY =   -9.964460
  0.53242616D+00  0.98222231D+00  0.15856114D+01  0.20639949D+01  0.17612105D+01
  0.60810368D+00 -0.19732807D-01 -0.90948327D-02  0.25502860D-01 -0.17818815D-04
 -0.13662337D-04 -0.68184637D-05 -0.76142340D-04 -0.58381117D-04 -0.29136269D-04
  0.00000000D+00  0.00000000D+00  0.00000000D+00 -0.36295471D-02  0.11239961D-04
 -0.70999027D-03  0.00000000D+00 -0.10079496D-01 -0.10171038D-01 -0.10505090D-01
 -0.52693647D-05  0.00000000D+00  0.00000000D+00  0.68092367D-02  0.12561712D-01
  0.20278498D-01  0.26396580D-01  0.22524249D-01  0.77770819D-02  0.88804341D-05
  0.40929840D-05 -0.11477154D-04  0.40190766D-03  0.30815730D-03  0.15379209D-03
  0.16812687D-03  0.12890902D-03  0.64334636D-04  0.00000000D+00  0.00000000D+00
  0.00000000D+00  0.16498512D-02 -0.66552494D-03  0.10731705D-03  0.00000000D+00
 -0.48949748D-03 -0.48411370D-03 -0.36974639D-03 -0.23046837D-03  0.00000000D+00
  0.00000000D+00  0.77967495D-04  0.14383480D-03  0.23219397D-03  0.30224756D-03
  0.25790839D-03  0.89049570D-04 -0.54690508D-04 -0.25206805D-04  0.70682513D-04
 -0.13997274D-05 -0.10732222D-05 -0.53561311D-06  0.39269054D-04  0.30109020D-04
  0.15026511D-04  0.00000000D+00  0.00000000D+00  0.00000000D+00 -0.81477569D-03
  0.36097961D-03  0.22302866D-03  0.00000000D+00  0.30851609D-04  0.90292980D-04
  0.50657735D-04  0.30392048D-04  0.00000000D+00  0.00000000D+00  0.32462232D-05
  0.59886480D-05  0.96675347D-05  0.12584258D-04  0.10738170D-04  0.37076320D-05
  0.11188173D-03  0.51566185D-04 -0.14459697D-03  0.18238026D-05  0.13983762D-05
  0.69788770D-06  0.22491235D-04  0.17244852D-04  0.86063899D-05  0.00000000D+00
  0.00000000D+00  0.00000000D+00  0.78331060D-03 -0.13551481D-04 -0.42090554D-03
  0.00000000D+00 -0.22336580D-05 -0.53045823D-04 -0.11092016D-03 -0.10666568D-05
  0.00000000D+00  0.00000000D+00  0.10931147D-03  0.20165833D-03  0.32553907D-03
  0.42375514D-03  0.36159103D-03  0.12484869D-03 -0.56070278D-04 -0.25842740D-04
  0.72465740D-04  0.12519804D-06  0.95993917D-07  0.47907692D-07  0.39791575D-04
  0.30509656D-04  0.15226457D-04  0.00000000D+00  0.00000000D+00  0.00000000D+00
 -0.83045336D-03 -0.37195589D-03  0.19827543D-03  0.00000000D+00  0.29312140D-04
  0.88946980D-04  0.50088163D-04 -0.37789455D-04  0.00000000D+00  0.00000000D+00
  0.71322158D-02  0.13157545D-01  0.21240358D-01  0.27648635D-01  0.23592630D-01
  0.81459683D-02 -0.34668285D-05 -0.15978581D-05  0.44805608D-05 -0.41057034D-03
 -0.31479930D-03 -0.15710691D-03  0.16498763D-03  0.12650205D-03  0.63133390D-04
  0.00000000D+00  0.00000000D+00  0.00000000D+00  0.16430930D-02  0.66890430D-03
  0.10991574D-03  0.00000000D+00 -0.50261577D-03 -0.48981550D-03 -0.37603963D-03
  0.23498221D-03  0.00000000D+00  0.00000000D+00 -0.11145837D-03 -0.18905449D-03
 -0.21523186D-03  0.19827295D-03  0.53596972D-05  0.90910609D-05  0.10349852D-04
  0.14823581D-03 -0.21010916D-04 -0.35638491D-04 -0.40573162D-04 -0.10431778D-03
 -0.19489162D-04 -0.33057308D-04 -0.37634577D-04 -0.10272771D-03  0.55863247D-05
  0.94754641D-05  0.10787481D-04  0.14917044D-03 -0.23498111D-04 -0.43249069D-04
 -0.69985158D-04 -0.91997448D-04 -0.78905677D-04 -0.26979191D-04  0.81491901D-04
  0.36361527D-04 -0.10737608D-03 -0.99152061D-05 -0.76391318D-05 -0.33539903D-05
  0.27676873D-04  0.21323539D-04  0.93621821D-05  0.00000000D+00  0.00000000D+00
  0.00000000D+00  0.26000216D-03  0.18937421D-05 -0.59955177D-04  0.00000000D+00
 -0.81734210D-04 -0.80059223D-04 -0.79109538D-04  0.27254277D-05  0.00000000D+00
  0.00000000D+00 -0.18826166D-05 -0.31932741D-05 -0.36354297D-05  0.11658284D-04
MO    4     MO 0.0        OCC NO =    1.0000000  ORB. ENERGY =   -9.945395
 -0.19359296D-02 -0.35714121D-02 -0.57653665D-02 -0.75047942D-02 -0.64038545D-02
 -0.22110971D-02  0.92223636D-04  0.42505790D-04 -0.11919067D-03  0.12982628D-03
  0.99542555D-04  0.49678711D-04 -0.95999745D-04 -0.73606515D-04 -0.36734810D-04
  0.00000000D+00  0.00000000D+00  0.00000000D+00 -0.33659740D-03 -0.48031288D-04
 -0.20589651D-03  0.00000000D+00 -0.17368716D-04  0.41684600D-04  0.21060729D-04
 -0.37196237D-04  0.00000000D+00  0.00000000D+00 -0.11246087D-02 -0.20746835D-02
 -0.33491825D-02 -0.43596404D-02 -0.37200891D-02 -0.12844574D-02  0.12230325D-03
  0.56369456D-04 -0.15806584D-03  0.35500562D-04  0.27219579D-04  0.13584478D-04
 -0.18688519D-04 -0.14329171D-04 -0.71512605D-05  0.00000000D+00  0.00000000D+00
  0.00000000D+00  0.51664403D-03 -0.19156160D-03  0.13457192D-03  0.00000000D+00
  0.37860784D-04  0.34595354D-04 -0.61496815D-04  0.38691739D-04  0.00000000D+00
  0.00000000D+00 -0.30638226D-03 -0.56521545D-03 -0.91243299D-03 -0.11877166D-02
 -0.10134808D-02 -0.34993055D-03  0.93854825D-05  0.43257603D-05 -0.12129883D-04
  0.46292648D-04  0.35494266D-04  0.17714126D-04 -0.48645304D-05 -0.37298134D-05
 -0.18614383D-05  0.00000000D+00  0.00000000D+00  0.00000000D+00 -0.46476922D-03
  0.18411351D-03  0.20151822D-03  0.00000000D+00  0.10969395D-03  0.51436028D-04
  0.59165513D-05 -0.68519196D-04  0.00000000D+00  0.00000000D+00 -0.17795692D-02
 -0.32829576D-02 -0.52997116D-02 -0.68986498D-02 -0.58866303D-02 -0.20325120D-02
  0.30815713D-03  0.14202934D-03 -0.39826510D-03  0.36000807D-03  0.27603136D-03
  0.13775899D-03  0.21285022D-03  0.16320005D-03  0.81448261D-04  0.00000000D+00
  0.00000000D+00  0.00000000D+00  0.14221562D-02 -0.37424953D-03 -0.52363528D-03
  0.00000000D+00 -0.42733955D-03 -0.26863634D-03 -0.20155036D-03 -0.78854654D-04
  0.00000000D+00  0.00000000D+00  0.51483576D+00  0.94977145D+00  0.15332256D+01
  0.19958042D+01  0.17030233D+01  0.58801303D+00 -0.19455758D-01 -0.89671409D-02
  0.25144799D-01  0.10056271D-03  0.77105105D-04  0.38480851D-04  0.11208153D-03
  0.85937010D-04  0.42888591D-04  0.00000000D+00  0.00000000D+00  0.00000000D+00
 -0.32067074D-02 -0.55823388D-03  0.16622281D-03  0.00000000D+00 -0.10331594D-01
 -0.10335494D-01 -0.10368246D-01  0.76715679D-04  0.00000000D+00  0.00000000D+00
  0.13549843D+00  0.24996815D+00  0.40352610D+00  0.52527108D+00  0.44821477D+00
  0.15475779D+00 -0.48780333D-02 -0.22482811D-02  0.63044148D-02 -0.67116280D-04
 -0.51460507D-04 -0.25682400D-04 -0.33046849D-03 -0.25338228D-03 -0.12645552D-03
  0.00000000D+00  0.00000000D+00  0.00000000D+00  0.66229072D-03  0.27484802D-03
  0.39591661D-03  0.00000000D+00 -0.29400065D-02 -0.31058134D-02 -0.29512507D-02
  0.78082955D-04  0.00000000D+00  0.00000000D+00 -0.12822556D-04 -0.21749482D-04
 -0.24761016D-04 -0.46753144D-04  0.64818898D-05  0.10994512D-04  0.12516863D-04
  0.69735400D-04 -0.14843548D-04 -0.25177467D-04 -0.28663656D-04 -0.54739453D-04
 -0.93813478D-04 -0.15912542D-03 -0.18115866D-03  0.20898120D-03 -0.16091450D-04
 -0.27294146D-04 -0.31073420D-04  0.19217492D-03 -0.17637505D-04 -0.32462424D-04
 -0.52530331D-04 -0.69052590D-04 -0.59226005D-04 -0.20250377D-04  0.86301284D-04
  0.38507465D-04 -0.11371306D-03 -0.68728642D-04 -0.52951714D-04 -0.23248654D-04
  0.31754115D-04  0.24464834D-04  0.10741380D-04  0.00000000D+00  0.00000000D+00
  0.00000000D+00  0.19840458D-03  0.70863623D-04 -0.50736131D-04  0.00000000D+00
 -0.42313571D-04  0.60224123D-06 -0.10092896D-03  0.17707326D-04  0.00000000D+00
  0.00000000D+00  0.37413685D-05  0.63460691D-05  0.72247754D-05  0.18233063D-04
MO    5     MO 0.0        OCC NO =    1.0000000  ORB. ENERGY =   -9.944353
 -0.70491643D-02 -0.13004332D-01 -0.20993024D-01 -0.27326679D-01 -0.23317905D-01
 -0.80511121D-02  0.53748238D-03  0.24772514D-03 -0.69464715D-03  0.26857559D-03
  0.20592673D-03  0.10277187D-03 -0.24962708D-03 -0.19139821D-03 -0.95521122D-04
  0.00000000D+00  0.00000000D+00  0.00000000D+00  0.18630616D-02 -0.24743840D-03
  0.75179073D-03  0.00000000D+00 -0.28192274D-03 -0.11076058D-03 -0.11413280D-03
  0.97905554D-04  0.00000000D+00  0.00000000D+00 -0.57651362D-02 -0.10635551D-01
 -0.17169076D-01 -0.22349036D-01 -0.19070473D-01 -0.65845760D-02  0.14010149D-03
  0.64572647D-04 -0.18106844D-03  0.46744492D-04  0.35840712D-04  0.17887027D-04
  0.35362473D-04  0.27113701D-04  0.13531637D-04  0.00000000D+00  0.00000000D+00
  0.00000000D+00 -0.99569189D-03  0.39183673D-03 -0.25149764D-03  0.00000000D+00
  0.21736008D-03  0.13970766D-03  0.18774421D-03  0.91756961D-05  0.00000000D+00
  0.00000000D+00 -0.28956498D-03 -0.53419086D-03 -0.86234967D-03 -0.11225230D-02
 -0.95785095D-03 -0.33072291D-03  0.10873442D-03  0.50115594D-04 -0.14052936D-03
  0.37773132D-04  0.28962042D-04  0.14454089D-04  0.14462512D-04  0.11088937D-04
  0.55341565D-05  0.00000000D+00  0.00000000D+00  0.00000000D+00  0.82206781D-03
 -0.34714201D-03 -0.28519262D-03  0.00000000D+00 -0.36244057D-04  0.55826514D-05
 -0.95586063D-04  0.28384181D-05  0.00000000D+00  0.00000000D+00  0.48206856D-03
  0.88932237D-03  0.14356421D-02  0.18687794D-02  0.15946328D-02  0.55058840D-03
 -0.13375495D-03 -0.61647534D-04  0.17286612D-03 -0.83638803D-04 -0.64128929D-04
 -0.32004830D-04 -0.38061284D-04 -0.29182978D-04 -0.14564351D-04  0.00000000D+00
  0.00000000D+00  0.00000000D+00 -0.12423627D-02  0.17799762D-03  0.48701480D-03
  0.00000000D+00  0.17408226D-03  0.10037039D-03  0.97908617D-04  0.84044848D-04
  0.00000000D+00  0.00000000D+00 -0.13575941D+00 -0.25044960D+00 -0.40430331D+00
 -0.52628278D+00 -0.44907805D+00 -0.15505586D+00  0.54077172D-02  0.24924119D-02
 -0.69889831D-02 -0.99878601D-04 -0.76580577D-04 -0.38219075D-04  0.42484458D-03
  0.32574388D-03  0.16256902D-03  0.00000000D+00  0.00000000D+00  0.00000000D+00
  0.26483921D-02  0.62404978D-03 -0.55892618D-03  0.00000000D+00  0.24721037D-02
  0.22363989D-02  0.24593019D-02 -0.12644144D-03  0.00000000D+00  0.00000000D+00
  0.51482670D+00  0.94975473D+00  0.15331986D+01  0.19957690D+01  0.17029933D+01
  0.58800268D+00 -0.19573246D-01 -0.90212913D-02  0.25296643D-01  0.67941494D-04
  0.52093228D-04  0.25998172D-04  0.29999649D-03  0.23001828D-03  0.11479524D-03
  0.00000000D+00  0.00000000D+00  0.00000000D+00 -0.39967958D-02 -0.75705905D-03
 -0.50686861D-03  0.00000000D+00 -0.10215748D-01 -0.10091174D-01 -0.10212749D-01
 -0.14731537D-03  0.00000000D+00  0.00000000D+00  0.15717972D-04  0.26660655D-04
  0.30352213D-04  0.17681413D-03 -0.15624011D-04 -0.26501280D-04 -0.30170771D-04
 -0.10977551D-03  0.21322578D-04  0.36167129D-04  0.41174998D-04  0.12693634D-03
  0.30721537D-04  0.52109542D-04  0.59324871D-04  0.91325922D-04 -0.10062877D-03
 -0.17068545D-03 -0.19431935D-03  0.12252917D-03  0.50827361D-06  0.93549477D-06
  0.15138071D-05  0.19899418D-05  0.17067615D-05  0.58357076D-06 -0.89535546D-05
 -0.39950586D-05  0.11797462D-04  0.55879741D-04  0.43052328D-04  0.18902291D-04
  0.56905258D-04  0.43842434D-04  0.19249190D-04  0.00000000D+00  0.00000000D+00
  0.00000000D+00 -0.99961438D-04 -0.51904586D-04 -0.20760373D-04  0.00000000D+00
 -0.64673115D-05  0.19697342D-04 -0.18394145D-04  0.53088483D-04  0.00000000D+00
  0.00000000D+00 -0.78039311D-05 -0.13236944D-04 -0.15069793D-04  0.72978965D-05
MO    6     MO 0.0        OCC NO =    1.0000000  ORB. ENERGY =   -9.943789
 -0.71387434D-02 -0.13169588D-01 -0.21259798D-01 -0.27673940D-01 -0.23614223D-01
 -0.81534237D-02  0.53800173D-03  0.24796451D-03 -0.69531836D-03 -0.28590860D-03
 -0.21921658D-03 -0.10940444D-03 -0.27964287D-03 -0.21441242D-03 -0.10700682D-03
  0.00000000D+00  0.00000000D+00  0.00000000D+00  0.17111233D-02  0.23343485D-03
  0.67449517D-03  0.00000000D+00 -0.29674938D-03 -0.10494611D-03 -0.11106610D-03
 -0.94479500D-04  0.00000000D+00  0.00000000D+00  0.53186710D+00  0.98119094D+00
  0.15839464D+01  0.20618276D+01  0.17593612D+01  0.60746515D+00 -0.20120650D-01
 -0.92735890D-02  0.26004111D-01 -0.53721967D-04 -0.41190597D-04 -0.20556995D-04
  0.14851991D-03  0.11387565D-03  0.56831929D-04  0.00000000D+00  0.00000000D+00
  0.00000000D+00 -0.36447676D-02  0.65348303D-03 -0.36027957D-03  0.00000000D+00
 -0.10605870D-01 -0.10532964D-01 -0.10619896D-01  0.11763429D-03  0.00000000D+00
  0.00000000D+00  0.22818114D-01  0.42094965D-01  0.67954326D-01  0.88456341D-01
  0.75479956D-01  0.26061415D-01 -0.59180742D-03 -0.27276350D-03  0.76485732D-03
  0.56799981D-04  0.43550623D-04  0.21734813D-04  0.44115916D-03  0.33825286D-03
  0.16881189D-03  0.00000000D+00  0.00000000D+00  0.00000000D+00  0.16063120D-02
 -0.43572330D-03 -0.49899288D-03  0.00000000D+00 -0.70428059D-03 -0.90911480D-03
 -0.72357597D-03  0.10304712D-03  0.00000000D+00  0.00000000D+00 -0.59727543D-04
 -0.11018565D-03 -0.17787381D-03 -0.23153885D-03 -0.19757252D-03 -0.68217044D-04
 -0.37381131D-04 -0.17228929D-04  0.48311715D-04 -0.26639702D-04 -0.20425634D-04
 -0.10193823D-04  0.28524812D-04  0.21871017D-04  0.10915170D-04  0.00000000D+00
  0.00000000D+00  0.00000000D+00 -0.78202051D-03 -0.77120609D-04  0.31139705D-03
  0.00000000D+00  0.38110386D-04  0.17388106D-04  0.35445972D-04 -0.68512737D-04
  0.00000000D+00  0.00000000D+00 -0.42158519D-03 -0.77774235D-03 -0.12555173D-02
 -0.16343105D-02 -0.13945601D-02 -0.48150808D-03  0.11310609D-03  0.52130495D-04
 -0.14617935D-03 -0.51557748D-04 -0.39531211D-04 -0.19728845D-04  0.19962476D-04
  0.15305960D-04  0.76387468D-05  0.00000000D+00  0.00000000D+00  0.00000000D+00
  0.66910823D-03  0.28324095D-03 -0.21860408D-03  0.00000000D+00 -0.48223270D-05
  0.11751727D-04 -0.92553790D-04  0.13975089D-04  0.00000000D+00  0.00000000D+00
  0.58170459D-02  0.10731314D-01  0.17323668D-01  0.22550268D-01  0.19242185D-01
  0.66438639D-02 -0.27034737D-03 -0.12460285D-03  0.34939941D-03 -0.55662122D-04
 -0.42678184D-04 -0.21299405D-04  0.33331136D-04  0.25556201D-04  0.12754335D-04
  0.00000000D+00  0.00000000D+00  0.00000000D+00 -0.87208936D-03 -0.32652924D-03
 -0.21335270D-03  0.00000000D+00 -0.13179908D-04 -0.85129980D-04 -0.72364066D-04
 -0.24037811D-04  0.00000000D+00  0.00000000D+00  0.11199567D-04  0.18996586D-04
  0.21626941D-04  0.15829580D-03 -0.10144730D-03 -0.17207381D-03 -0.19589996D-03
  0.17376828D-03  0.22673711D-05  0.38458905D-05  0.43784104D-05  0.15697757D-03
  0.16189150D-04  0.27459862D-04  0.31262082D-04  0.10500396D-03 -0.15064213D-04
 -0.25551756D-04 -0.29089771D-04 -0.80691220D-04 -0.82538604D-05 -0.15191509D-04
 -0.24582730D-04 -0.32314686D-04 -0.27716119D-04 -0.94766117D-05  0.23506447D-04
  0.10488531D-04 -0.30972773D-04 -0.67809322D-04 -0.52243427D-04 -0.22937678D-04
  0.48572114D-04  0.37422196D-04  0.16430360D-04  0.00000000D+00  0.00000000D+00
  0.00000000D+00 -0.11186956D-04  0.49847547D-04 -0.38393950D-04  0.00000000D+00
 -0.53577645D-04  0.11871091D-04 -0.52910791D-04 -0.62593667D-04  0.00000000D+00
  0.00000000D+00  0.54040255D-05  0.91662501D-05  0.10435452D-04 -0.17575806D-06
MO    7     MO 0.0        OCC NO =    1.0000000  ORB. ENERGY =   -9.937705
  0.26332841D-03  0.48578951D-03  0.78421489D-03  0.10208148D-02  0.87106310D-03
  0.30075715D-03 -0.70596665D-04 -0.32537938D-04  0.91239776D-04 -0.43895427D-04
 -0.33656229D-04 -0.16796817D-04 -0.22459153D-04 -0.17220254D-04 -0.85941135D-05
  0.00000000D+00  0.00000000D+00  0.00000000D+00 -0.87472239D-03 -0.86896402D-05
 -0.41802822D-03  0.00000000D+00  0.65307711D-04  0.73453503D-04  0.50779308D-04
  0.66934195D-04  0.00000000D+00  0.00000000D+00 -0.23075743D-01 -0.42570239D-01
 -0.68721566D-01 -0.89455059D-01 -0.76332164D-01 -0.26355662D-01  0.11375262D-02
  0.52428476D-03 -0.14701492D-02  0.89651146D-04  0.68738812D-04  0.34305485D-04
 -0.41721637D-03 -0.31989505D-03 -0.15965005D-03  0.00000000D+00  0.00000000D+00
  0.00000000D+00  0.18345587D-02 -0.48575141D-03  0.53362431D-03  0.00000000D+00
  0.21480445D-03  0.30583435D-05  0.20420356D-03 -0.10394248D-03  0.00000000D+00
  0.00000000D+00  0.53194157D+00  0.98132833D+00  0.15841682D+01  0.20621163D+01
  0.17596076D+01  0.60755021D+00 -0.20202804D-01 -0.93114537D-02  0.26110288D-01
 -0.23397422D-03 -0.17939659D-03 -0.89531471D-04 -0.10300915D-03 -0.78980880D-04
 -0.39416994D-04  0.00000000D+00  0.00000000D+00  0.00000000D+00 -0.38175909D-02
  0.70854489D-03  0.37096114D-03  0.00000000D+00 -0.10616947D-01 -0.10534654D-01
 -0.10642815D-01 -0.10944088D-03  0.00000000D+00  0.00000000D+00 -0.17033741D-02
 -0.31423927D-02 -0.50727961D-02 -0.66032733D-02 -0.56345851D-02 -0.19454868D-02
  0.32607955D-03  0.15028977D-03 -0.42142820D-03 -0.36804263D-03 -0.28219175D-03
 -0.14083346D-03  0.20398240D-03  0.15640076D-03  0.78054942D-04  0.00000000D+00