B3LYP/SDD_6-31G* opted & wavefunction                                                 
FOpt      RB3LYP                                                      GenECP              
Number of atoms                            I               10
Info1-9                                    I   N=           9
          27          27           0           0           0         110
           2          18        -502
Charge                                     I               -2
Multiplicity                               I                1
Number of electrons                        I              168
Number of alpha electrons                  I               84
Number of beta electrons                   I               84
Number of basis functions                  I              216
Number of independent functions            I              216
Number of point charges in /Mol/           I                0
Number of translation vectors              I                0
Atomic numbers                             I   N=          10
          75          75          17          17          17          17
          17          17          17          17
Nuclear charges                            R   N=          10
  1.50000000E+01  1.50000000E+01  1.70000000E+01  1.70000000E+01  1.70000000E+01
  1.70000000E+01  1.70000000E+01  1.70000000E+01  1.70000000E+01  1.70000000E+01
Current cartesian coordinates              R   N=          30
  1.99134075E-16 -4.96883032E-17  2.11485396E+00  4.58128988E-16 -4.96883032E-17
 -2.11485396E+00  4.31494698E-15  4.36140552E+00  3.24627683E+00 -4.36140552E+00
  4.33318366E-15  3.24627683E+00  4.36140552E+00 -4.96667840E-15  3.24627683E+00
 -4.45079696E-15 -4.36140552E+00  3.24627683E+00  4.36140552E+00 -5.33702774E-15
 -3.24627683E+00 -4.45079696E-15 -4.36140552E+00 -3.24627683E+00 -4.36140552E+00
  5.31566447E-15 -3.24627683E+00  4.71250123E-15  4.36140552E+00 -3.24627683E+00
Force Field                                I                0
Int Atom Types                             I   N=          10
           0           0           0           0           0           0
           0           0           0           0
MM charges                                 R   N=          10
  0.00000000E+00  0.00000000E+00  0.00000000E+00  0.00000000E+00  0.00000000E+00
  0.00000000E+00  0.00000000E+00  0.00000000E+00  0.00000000E+00  0.00000000E+00
Integer atomic weights                     I   N=          10
         187         187          35          35          35          35
          35          35          35          35
Real atomic weights                        R   N=          10
  1.86956000E+02  1.86956000E+02  3.49688527E+01  3.49688527E+01  3.49688527E+01
  3.49688527E+01  3.49688527E+01  3.49688527E+01  3.49688527E+01  3.49688527E+01
Atom fragment info                         I   N=          10
           0           0           0           0           0           0
           0           0           0           0
Atom residue num                           I   N=          10
           0           0           0           0           0           0
           0           0           0           0
Nuclear spins                              I   N=          10
           5           5           3           3           3           3
           3           3           3           3
Nuclear ZEff                               R   N=          10
 -1.09950000E+03 -1.09950000E+03 -1.42400000E+01 -1.42400000E+01 -1.42400000E+01
 -1.42400000E+01 -1.42400000E+01 -1.42400000E+01 -1.42400000E+01 -1.42400000E+01
Nuclear ZNuc                               R   N=          10
  7.50000000E+01  7.50000000E+01  1.70000000E+01  1.70000000E+01  1.70000000E+01
  1.70000000E+01  1.70000000E+01  1.70000000E+01  1.70000000E+01  1.70000000E+01
Nuclear QMom                               R   N=          10
  2.07000000E+02  2.07000000E+02 -8.16500000E+00 -8.16500000E+00 -8.16500000E+00
 -8.16500000E+00 -8.16500000E+00 -8.16500000E+00 -8.16500000E+00 -8.16500000E+00
Nuclear GFac                               R   N=          10
  3.21970000E+00  3.21970000E+00  8.21874000E-01  8.21874000E-01  8.21874000E-01
  8.21874000E-01  8.21874000E-01  8.21874000E-01  8.21874000E-01  8.21874000E-01
MicOpt                                     I   N=          10
          -1          -1          -1          -1          -1          -1
          -1          -1          -1          -1
SymInf integers                            I   N=          26
           8           8           1           1           1          -1
          -1           1          -1           1          -1           1
          -1          -1          -1           1           1           1
          -1           1           1           1          -1          -1
          -1          -1
RotTr to input orientation                 R   N=          12
  1.00000000E+00 -9.43689571E-16  0.00000000E+00  9.43689571E-16  1.00000000E+00
  0.00000000E+00  0.00000000E+00  0.00000000E+00  1.00000000E+00  1.99134075E-16
 -4.96883032E-17 -1.24220758E-16
Number of contracted shells                I               68
Number of primitive shells                 I              178
Pure/Cartesian d shells                    I                0
Pure/Cartesian f shells                    I                0
Highest angular momentum                   I                2
Largest degree of contraction              I                6
Shell types                                I   N=          68
           0           0           0           0           0           0
           1           1           1           1           1          -2
          -2          -2           0           0           0           0
           0           0           1           1           1           1
           1          -2          -2          -2           0          -1
          -1          -1          -2           0          -1          -1
          -1          -2           0          -1          -1          -1
          -2           0          -1          -1          -1          -2
           0          -1          -1          -1          -2           0
          -1          -1          -1          -2           0          -1
          -1          -1          -2           0          -1          -1
          -1          -2
Number of primitives per shell             I   N=          68
           3           1           1           1           1           1
           2           2           1           1           1           4
           1           1           3           1           1           1
           1           1           2           2           1           1
           1           4           1           1           6           6
           3           1           1           6           6           3
           1           1           6           6           3           1
           1           6           6           3           1           1
           6           6           3           1           1           6
           6           3           1           1           6           6
           3           1           1           6           6           3
           1           1
Shell to atom map                          I   N=          68
           1           1           1           1           1           1
           1           1           1           1           1           1
           1           1           2           2           2           2
           2           2           2           2           2           2
           2           2           2           2           3           3
           3           3           3           4           4           4
           4           4           5           5           5           5
           5           6           6           6           6           6
           7           7           7           7           7           8
           8           8           8           8           9           9
           9           9           9          10          10          10
          10          10
Primitive exponents                        R   N=         178
  1.47818620E+01  1.23240750E+01  5.49747800E+00  1.02605200E+00  4.69009000E-01
  1.31184000E-01  4.78570000E-02  1.50000000E-02  7.40400500E+00  6.35020600E+00
  1.88859900E+00  9.83485000E-01  3.83410000E-01  7.04600000E-02  2.20280000E-02
  3.43448200E+00  2.98078100E+00  1.01739400E+00  3.95060000E-01  1.30111000E-01
  4.00000000E-02  1.47818620E+01  1.23240750E+01  5.49747800E+00  1.02605200E+00
  4.69009000E-01  1.31184000E-01  4.78570000E-02  1.50000000E-02  7.40400500E+00
  6.35020600E+00  1.88859900E+00  9.83485000E-01  3.83410000E-01  7.04600000E-02
  2.20280000E-02  3.43448200E+00  2.98078100E+00  1.01739400E+00  3.95060000E-01
  1.30111000E-01  4.00000000E-02  2.51801000E+04  3.78035000E+03  8.60474000E+02
  2.42145000E+02  7.73349000E+01  2.62470000E+01  4.91765000E+02  1.16984000E+02
  3.74153000E+01  1.37834000E+01  5.45215000E+00  2.22588000E+00  3.18649000E+00
  1.14427000E+00  4.20377000E-01  1.42657000E-01  7.50000000E-01  2.51801000E+04
  3.78035000E+03  8.60474000E+02  2.42145000E+02  7.73349000E+01  2.62470000E+01
  4.91765000E+02  1.16984000E+02  3.74153000E+01  1.37834000E+01  5.45215000E+00
  2.22588000E+00  3.18649000E+00  1.14427000E+00  4.20377000E-01  1.42657000E-01
  7.50000000E-01  2.51801000E+04  3.78035000E+03  8.60474000E+02  2.42145000E+02
  7.73349000E+01  2.62470000E+01  4.91765000E+02  1.16984000E+02  3.74153000E+01
  1.37834000E+01  5.45215000E+00  2.22588000E+00  3.18649000E+00  1.14427000E+00
  4.20377000E-01  1.42657000E-01  7.50000000E-01  2.51801000E+04  3.78035000E+03
  8.60474000E+02  2.42145000E+02  7.73349000E+01  2.62470000E+01  4.91765000E+02
  1.16984000E+02  3.74153000E+01  1.37834000E+01  5.45215000E+00  2.22588000E+00
  3.18649000E+00  1.14427000E+00  4.20377000E-01  1.42657000E-01  7.50000000E-01
  2.51801000E+04  3.78035000E+03  8.60474000E+02  2.42145000E+02  7.73349000E+01
  2.62470000E+01  4.91765000E+02  1.16984000E+02  3.74153000E+01  1.37834000E+01
  5.45215000E+00  2.22588000E+00  3.18649000E+00  1.14427000E+00  4.20377000E-01
  1.42657000E-01  7.50000000E-01  2.51801000E+04  3.78035000E+03  8.60474000E+02
  2.42145000E+02  7.73349000E+01  2.62470000E+01  4.91765000E+02  1.16984000E+02
  3.74153000E+01  1.37834000E+01  5.45215000E+00  2.22588000E+00  3.18649000E+00
  1.14427000E+00  4.20377000E-01  1.42657000E-01  7.50000000E-01  2.51801000E+04
  3.78035000E+03  8.60474000E+02  2.42145000E+02  7.73349000E+01  2.62470000E+01
  4.91765000E+02  1.16984000E+02  3.74153000E+01  1.37834000E+01  5.45215000E+00
  2.22588000E+00  3.18649000E+00  1.14427000E+00  4.20377000E-01  1.42657000E-01
  7.50000000E-01  2.51801000E+04  3.78035000E+03  8.60474000E+02  2.42145000E+02
  7.73349000E+01  2.62470000E+01  4.91765000E+02  1.16984000E+02  3.74153000E+01
  1.37834000E+01  5.45215000E+00  2.22588000E+00  3.18649000E+00  1.14427000E+00
  4.20377000E-01  1.42657000E-01  7.50000000E-01
Contraction coefficients                   R   N=         178
 -1.14103816E+00  1.93714492E+00 -1.72327443E+00  1.00000000E+00  1.00000000E+00
  1.00000000E+00  1.00000000E+00  1.00000000E+00  2.36983597E+00 -3.31055416E+00
  1.82196100E-01  8.36307699E-01  1.00000000E+00  1.00000000E+00  1.00000000E+00
 -3.62670707E-01  3.76169607E-01  4.57833209E-01  5.99570211E-01  1.00000000E+00
  1.00000000E+00 -1.14103816E+00  1.93714492E+00 -1.72327443E+00  1.00000000E+00
  1.00000000E+00  1.00000000E+00  1.00000000E+00  1.00000000E+00  2.36983597E+00
 -3.31055416E+00  1.82196100E-01  8.36307699E-01  1.00000000E+00  1.00000000E+00
  1.00000000E+00 -3.62670707E-01  3.76169607E-01  4.57833209E-01  5.99570211E-01
  1.00000000E+00  1.00000000E+00  1.83295985E-03  1.40341988E-02  6.90973943E-02
  2.37451980E-01  4.83033960E-01  3.39855972E-01 -2.29739142E-03 -3.07137189E-02
 -1.12528069E-01  4.50163278E-02  5.89353363E-01  4.65206287E-01 -2.51828028E-01
  6.15892514E-02  1.06018433E+00  1.00000000E+00  1.00000000E+00  1.83295985E-03
  1.40341988E-02  6.90973943E-02  2.37451980E-01  4.83033960E-01  3.39855972E-01
 -2.29739142E-03 -3.07137189E-02 -1.12528069E-01  4.50163278E-02  5.89353363E-01
  4.65206287E-01 -2.51828028E-01  6.15892514E-02  1.06018433E+00  1.00000000E+00
  1.00000000E+00  1.83295985E-03  1.40341988E-02  6.90973943E-02  2.37451980E-01
  4.83033960E-01  3.39855972E-01 -2.29739142E-03 -3.07137189E-02 -1.12528069E-01
  4.50163278E-02  5.89353363E-01  4.65206287E-01 -2.51828028E-01  6.15892514E-02
  1.06018433E+00  1.00000000E+00  1.00000000E+00  1.83295985E-03  1.40341988E-02
  6.90973943E-02  2.37451980E-01  4.83033960E-01  3.39855972E-01 -2.29739142E-03
 -3.07137189E-02 -1.12528069E-01  4.50163278E-02  5.89353363E-01  4.65206287E-01
 -2.51828028E-01  6.15892514E-02  1.06018433E+00  1.00000000E+00  1.00000000E+00
  1.83295985E-03  1.40341988E-02  6.90973943E-02  2.37451980E-01  4.83033960E-01
  3.39855972E-01 -2.29739142E-03 -3.07137189E-02 -1.12528069E-01  4.50163278E-02
  5.89353363E-01  4.65206287E-01 -2.51828028E-01  6.15892514E-02  1.06018433E+00
  1.00000000E+00  1.00000000E+00  1.83295985E-03  1.40341988E-02  6.90973943E-02
  2.37451980E-01  4.83033960E-01  3.39855972E-01 -2.29739142E-03 -3.07137189E-02
 -1.12528069E-01  4.50163278E-02  5.89353363E-01  4.65206287E-01 -2.51828028E-01
  6.15892514E-02  1.06018433E+00  1.00000000E+00  1.00000000E+00  1.83295985E-03
  1.40341988E-02  6.90973943E-02  2.37451980E-01  4.83033960E-01  3.39855972E-01
 -2.29739142E-03 -3.07137189E-02 -1.12528069E-01  4.50163278E-02  5.89353363E-01
  4.65206287E-01 -2.51828028E-01  6.15892514E-02  1.06018433E+00  1.00000000E+00
  1.00000000E+00  1.83295985E-03  1.40341988E-02  6.90973943E-02  2.37451980E-01
  4.83033960E-01  3.39855972E-01 -2.29739142E-03 -3.07137189E-02 -1.12528069E-01
  4.50163278E-02  5.89353363E-01  4.65206287E-01 -2.51828028E-01  6.15892514E-02
  1.06018433E+00  1.00000000E+00  1.00000000E+00
P(S=P) Contraction coefficients            R   N=         178
  0.00000000E+00  0.00000000E+00  0.00000000E+00  0.00000000E+00  0.00000000E+00
  0.00000000E+00  0.00000000E+00  0.00000000E+00  0.00000000E+00  0.00000000E+00
  0.00000000E+00  0.00000000E+00  0.00000000E+00  0.00000000E+00  0.00000000E+00
  0.00000000E+00  0.00000000E+00  0.00000000E+00  0.00000000E+00  0.00000000E+00
  0.00000000E+00  0.00000000E+00  0.00000000E+00  0.00000000E+00  0.00000000E+00
  0.00000000E+00  0.00000000E+00  0.00000000E+00  0.00000000E+00  0.00000000E+00
  0.00000000E+00  0.00000000E+00  0.00000000E+00  0.00000000E+00  0.00000000E+00
  0.00000000E+00  0.00000000E+00  0.00000000E+00  0.00000000E+00  0.00000000E+00
  0.00000000E+00  0.00000000E+00  0.00000000E+00  0.00000000E+00  0.00000000E+00
  0.00000000E+00  0.00000000E+00  0.00000000E+00  3.98940088E-03  3.03177067E-02
  1.29880029E-01  3.27951072E-01  4.53527100E-01  2.52154056E-01 -1.42993147E-02
  3.23572333E-01  7.43507765E-01  1.00000000E+00  0.00000000E+00  0.00000000E+00
  0.00000000E+00  0.00000000E+00  0.00000000E+00  0.00000000E+00  0.00000000E+00
  3.98940088E-03  3.03177067E-02  1.29880029E-01  3.27951072E-01  4.53527100E-01
  2.52154056E-01 -1.42993147E-02  3.23572333E-01  7.43507765E-01  1.00000000E+00
  0.00000000E+00  0.00000000E+00  0.00000000E+00  0.00000000E+00  0.00000000E+00
  0.00000000E+00  0.00000000E+00  3.98940088E-03  3.03177067E-02  1.29880029E-01
  3.27951072E-01  4.53527100E-01  2.52154056E-01 -1.42993147E-02  3.23572333E-01
  7.43507765E-01  1.00000000E+00  0.00000000E+00  0.00000000E+00  0.00000000E+00
  0.00000000E+00  0.00000000E+00  0.00000000E+00  0.00000000E+00  3.98940088E-03
  3.03177067E-02  1.29880029E-01  3.27951072E-01  4.53527100E-01  2.52154056E-01
 -1.42993147E-02  3.23572333E-01  7.43507765E-01  1.00000000E+00  0.00000000E+00
  0.00000000E+00  0.00000000E+00  0.00000000E+00  0.00000000E+00  0.00000000E+00
  0.00000000E+00  3.98940088E-03  3.03177067E-02  1.29880029E-01  3.27951072E-01
  4.53527100E-01  2.52154056E-01 -1.42993147E-02  3.23572333E-01  7.43507765E-01
  1.00000000E+00  0.00000000E+00  0.00000000E+00  0.00000000E+00  0.00000000E+00
  0.00000000E+00  0.00000000E+00  0.00000000E+00  3.98940088E-03  3.03177067E-02
  1.29880029E-01  3.27951072E-01  4.53527100E-01  2.52154056E-01 -1.42993147E-02
  3.23572333E-01  7.43507765E-01  1.00000000E+00  0.00000000E+00  0.00000000E+00
  0.00000000E+00  0.00000000E+00  0.00000000E+00  0.00000000E+00  0.00000000E+00
  3.98940088E-03  3.03177067E-02  1.29880029E-01  3.27951072E-01  4.53527100E-01
  2.52154056E-01 -1.42993147E-02  3.23572333E-01  7.43507765E-01  1.00000000E+00
  0.00000000E+00  0.00000000E+00  0.00000000E+00  0.00000000E+00  0.00000000E+00
  0.00000000E+00  0.00000000E+00  3.98940088E-03  3.03177067E-02  1.29880029E-01
  3.27951072E-01  4.53527100E-01  2.52154056E-01 -1.42993147E-02  3.23572333E-01
  7.43507765E-01  1.00000000E+00  0.00000000E+00
Coordinates of each shell                  R   N=         204
  0.00000000E+00  0.00000000E+00  2.11485396E+00  0.00000000E+00  0.00000000E+00
  2.11485396E+00  0.00000000E+00  0.00000000E+00  2.11485396E+00  0.00000000E+00
  0.00000000E+00  2.11485396E+00  0.00000000E+00  0.00000000E+00  2.11485396E+00
  0.00000000E+00  0.00000000E+00  2.11485396E+00  0.00000000E+00  0.00000000E+00
  2.11485396E+00  0.00000000E+00  0.00000000E+00  2.11485396E+00  0.00000000E+00
  0.00000000E+00  2.11485396E+00  0.00000000E+00  0.00000000E+00  2.11485396E+00
  0.00000000E+00  0.00000000E+00  2.11485396E+00  0.00000000E+00  0.00000000E+00
  2.11485396E+00  0.00000000E+00  0.00000000E+00  2.11485396E+00  0.00000000E+00
  0.00000000E+00  2.11485396E+00  2.58994913E-16 -3.80533072E-35 -2.11485396E+00
  2.58994913E-16 -3.80533072E-35 -2.11485396E+00  2.58994913E-16 -3.80533072E-35
 -2.11485396E+00  2.58994913E-16 -3.80533072E-35 -2.11485396E+00  2.58994913E-16
 -3.80533072E-35 -2.11485396E+00  2.58994913E-16 -3.80533072E-35 -2.11485396E+00
  2.58994913E-16 -3.80533072E-35 -2.11485396E+00  2.58994913E-16 -3.80533072E-35
 -2.11485396E+00  2.58994913E-16 -3.80533072E-35 -2.11485396E+00  2.58994913E-16
 -3.80533072E-35 -2.11485396E+00  2.58994913E-16 -3.80533072E-35 -2.11485396E+00
  2.58994913E-16 -3.80533072E-35 -2.11485396E+00  2.58994913E-16 -3.80533072E-35
 -2.11485396E+00  2.58994913E-16 -3.80533072E-35 -2.11485396E+00  0.00000000E+00
  4.36140552E+00  3.24627683E+00  0.00000000E+00  4.36140552E+00  3.24627683E+00
  0.00000000E+00  4.36140552E+00  3.24627683E+00  0.00000000E+00  4.36140552E+00
  3.24627683E+00  0.00000000E+00  4.36140552E+00  3.24627683E+00 -4.36140552E+00
  2.67059065E-16  3.24627683E+00 -4.36140552E+00  2.67059065E-16  3.24627683E+00
 -4.36140552E+00  2.67059065E-16  3.24627683E+00 -4.36140552E+00  2.67059065E-16
  3.24627683E+00 -4.36140552E+00  2.67059065E-16  3.24627683E+00  4.36140552E+00
 -8.01177196E-16  3.24627683E+00  4.36140552E+00 -8.01177196E-16  3.24627683E+00
  4.36140552E+00 -8.01177196E-16  3.24627683E+00  4.36140552E+00 -8.01177196E-16
  3.24627683E+00  4.36140552E+00 -8.01177196E-16  3.24627683E+00 -5.34118131E-16
 -4.36140552E+00  3.24627683E+00 -5.34118131E-16 -4.36140552E+00  3.24627683E+00
 -5.34118131E-16 -4.36140552E+00  3.24627683E+00 -5.34118131E-16 -4.36140552E+00
  3.24627683E+00 -5.34118131E-16 -4.36140552E+00  3.24627683E+00  4.36140552E+00
 -1.17152654E-15 -3.24627683E+00  4.36140552E+00 -1.17152654E-15 -3.24627683E+00
  4.36140552E+00 -1.17152654E-15 -3.24627683E+00  4.36140552E+00 -1.17152654E-15
 -3.24627683E+00  4.36140552E+00 -1.17152654E-15 -3.24627683E+00 -5.34118131E-16
 -4.36140552E+00 -3.24627683E+00 -5.34118131E-16 -4.36140552E+00 -3.24627683E+00
 -5.34118131E-16 -4.36140552E+00 -3.24627683E+00 -5.34118131E-16 -4.36140552E+00
 -3.24627683E+00 -5.34118131E-16 -4.36140552E+00 -3.24627683E+00 -4.36140552E+00
  1.24953987E-15 -3.24627683E+00 -4.36140552E+00  1.24953987E-15 -3.24627683E+00
 -4.36140552E+00  1.24953987E-15 -3.24627683E+00 -4.36140552E+00  1.24953987E-15
 -3.24627683E+00 -4.36140552E+00  1.24953987E-15 -3.24627683E+00  3.97554253E-16
  4.36140552E+00 -3.24627683E+00  3.97554253E-16  4.36140552E+00 -3.24627683E+00
  3.97554253E-16  4.36140552E+00 -3.24627683E+00  3.97554253E-16  4.36140552E+00
 -3.24627683E+00  3.97554253E-16  4.36140552E+00 -3.24627683E+00
Constraint Structure                       R   N=          30
  0.00000000E+00  0.00000000E+00  2.09781285E+00  2.56907980E-16  0.00000000E+00
 -2.09781285E+00  0.00000000E+00  4.35594712E+00  3.22382843E+00 -4.35594712E+00
  2.66724835E-16  3.22382843E+00  4.35594712E+00 -8.00174505E-16  3.22382843E+00
 -5.33449670E-16 -4.35594712E+00  3.22382843E+00  4.35594712E+00 -1.17165246E-15
 -3.22382843E+00 -5.33449670E-16 -4.35594712E+00 -3.22382843E+00 -4.35594712E+00
  1.24638393E-15 -3.22382843E+00  3.94805117E-16  4.35594712E+00 -3.22382843E+00
Num ILSW                                   I              100
ILSW                                       I   N=         100
           0           0           0           0           2           0
           0           0           0           0         402          -1
           0           0           0           0           2           0
           0           0           0           0           1           0
           1           0           0           0           0           0
           0           0      100000           0          -1           0
           0           0           0           0           0           0
           0           0           0           1           0           0
           0           0           1           0           0           0
           0           0           4          41           0           0
           0           0           5           0           0           0
           0           0           0          10           0           0
           0           0           0           0           0           0
           0           0           0           0           0           0
           0           0           0           0           0           0
           0           0           0           0           0           0
           0           0           0           0
Num RLSW                                   I               41
RLSW                                       R   N=          41
  8.00000000E-01  7.20000000E-01  1.00000000E+00  8.10000000E-01  2.00000000E-01
  0.00000000E+00  0.00000000E+00  1.00000000E+00  0.00000000E+00  0.00000000E+00
  0.00000000E+00  0.00000000E+00  1.00000000E+00  0.00000000E+00  0.00000000E+00
  0.00000000E+00  0.00000000E+00  1.00000000E+00  0.00000000E+00  0.00000000E+00
  0.00000000E+00  0.00000000E+00  1.00000000E+00  0.00000000E+00  0.00000000E+00
  0.00000000E+00  0.00000000E+00  1.00000000E+00  0.00000000E+00  0.00000000E+00
  0.00000000E+00  0.00000000E+00  1.00000000E+00  0.00000000E+00  0.00000000E+00
  0.00000000E+00  0.00000000E+00  0.00000000E+00  1.00000000E+00  1.00000000E+00
  0.00000000E+00
ECP-MxAtEC                                 I           250000
ECP-MaxLECP                                I               10
ECP-MaxAtL                                 I          2250000
ECP-MxTECP                                 I         11250000
ECP-LenNCZ                                 I                9
ECP-KFirst                                 I   N=         100
           1           1           0           0           0           0
           0           0           0           0           2           2
           0           0           0           0           0           0
           0           0           4           4           0           0
           0           0           0           0           0           0
           6           6           0           0           0           0
           0           0           0           0           8           8
           0           0           0           0           0           0
           0           0           9           9           0           0
           0           0           0           0           0           0
           0           0           0           0           0           0
           0           0           0           0           0           0
           0           0           0           0           0           0
           0           0           0           0           0           0
           0           0           0           0           0           0
           0           0           0           0           0           0
           0           0           0           0
ECP-KLast                                  I   N=         100
           1           1           0           0           0           0
           0           0           0           0           3           3
           0           0           0           0           0           0
           0           0           5           5           0           0
           0           0           0           0           0           0
           7           7           0           0           0           0
           0           0           0           0           8           8
           0           0           0           0           0           0
           0           0           9           9           0           0
           0           0           0           0           0           0
           0           0           0           0           0           0
           0           0           0           0           0           0
           0           0           0           0           0           0
           0           0           0           0           0           0
           0           0           0           0           0           0
           0           0           0           0           0           0
           0           0           0           0
ECP-LMax                                   I   N=          10
           5           5           0           0           0           0
           0           0           0           0
ECP-LPSkip                                 I   N=          10
           0           0           1           1           1           1
           1           1           1           1
ECP-RNFroz                                 R   N=          10
  6.00000000E+01  6.00000000E+01  0.00000000E+00  0.00000000E+00  0.00000000E+00
  0.00000000E+00  0.00000000E+00  0.00000000E+00  0.00000000E+00  0.00000000E+00
ECP-NLP                                    I   N=           9
           2           2           2           2           2           2
           2           2           2
ECP-CLP1                                   R   N=           9
  0.00000000E+00  1.03895157E+03  2.95617380E+01  3.39543510E+02  2.49136960E+01
  1.11699653E+02  1.26243290E+01  1.64498520E+01 -1.65011200E+01
ECP-CLP2                                   R   N=           9
  0.00000000E+00  0.00000000E+00  0.00000000E+00  0.00000000E+00  0.00000000E+00
  0.00000000E+00  0.00000000E+00  0.00000000E+00  0.00000000E+00
ECP-ZLP                                    R   N=           9
  1.00000000E+00  1.40993050E+01  7.04965300E+00  1.01077170E+01  5.05385800E+00
  6.84861800E+00  3.42430900E+00  2.50865100E+00  3.90124500E+00
MxBond                                     I                5
NBond                                      I   N=          10
           5           5           1           1           1           1
           1           1           1           1
IBond                                      I   N=          50
           2           3           4           5           6           1
           7           8           9          10           1           0
           0           0           0           1           0           0
           0           0           1           0           0           0
           0           1           0           0           0           0
           2           0           0           0           0           2
           0           0           0           0           2           0
           0           0           0           2           0           0
           0           0
RBond                                      R   N=          50
  3.00000000E+00  1.00000000E+00  1.00000000E+00  1.00000000E+00  1.00000000E+00
  3.00000000E+00  1.00000000E+00  1.00000000E+00  1.00000000E+00  1.00000000E+00
  1.00000000E+00  0.00000000E+00  0.00000000E+00  0.00000000E+00  0.00000000E+00
  1.00000000E+00  0.00000000E+00  0.00000000E+00  0.00000000E+00  0.00000000E+00
  1.00000000E+00  0.00000000E+00  0.00000000E+00  0.00000000E+00  0.00000000E+00
  1.00000000E+00  0.00000000E+00  0.00000000E+00  0.00000000E+00  0.00000000E+00
  1.00000000E+00  0.00000000E+00  0.00000000E+00  0.00000000E+00  0.00000000E+00
  1.00000000E+00  0.00000000E+00  0.00000000E+00  0.00000000E+00  0.00000000E+00
  1.00000000E+00  0.00000000E+00  0.00000000E+00  0.00000000E+00  0.00000000E+00
  1.00000000E+00  0.00000000E+00  0.00000000E+00  0.00000000E+00  0.00000000E+00
Virial Ratio                               R      2.029458894875598E+00
SCF Energy                                 R     -3.838643516147535E+03
Total Energy                               R     -3.838643516147535E+03
RMS Force                                  R      5.539697114725553E-05
RMS Density                                R      2.988512911193240E-09
Job Status                                 I                1
Nuclear derivative order                   I                1
External E-field                           R   N=          35
  0.00000000E+00  0.00000000E+00  0.00000000E+00  0.00000000E+00  0.00000000E+00
  0.00000000E+00  0.00000000E+00  0.00000000E+00  0.00000000E+00  0.00000000E+00
  0.00000000E+00  0.00000000E+00  0.00000000E+00  0.00000000E+00  0.00000000E+00
  0.00000000E+00  0.00000000E+00  0.00000000E+00  0.00000000E+00  0.00000000E+00
  0.00000000E+00  0.00000000E+00  0.00000000E+00  0.00000000E+00  0.00000000E+00