title                                                                   
SP        UB3LYP                                                      CC-pVTZ             
Number of atoms                            I                1
Info1-9                                    I   N=           9
           9           8           0           0           0         110
           1          18        -502
Charge                                     I                0
Multiplicity                               I                3
Number of electrons                        I               16
Number of alpha electrons                  I                9
Number of beta electrons                   I                7
Number of basis functions                  I               34
Number of independent functions            I               34
Number of point charges in /Mol/           I                0
Number of translation vectors              I                0
Atomic numbers                             I   N=           1
          16
Nuclear charges                            R   N=           1
  1.60000000E+01
Current cartesian coordinates              R   N=           3
  0.00000000E+00  0.00000000E+00  0.00000000E+00
Force Field                                I                0
Int Atom Types                             I   N=           1
           0
MM charges                                 R   N=           1
  0.00000000E+00
Integer atomic weights                     I   N=           1
          32
Real atomic weights                        R   N=           1
  3.19720718E+01
Atom fragment info                         I   N=           1
           0
Atom residue num                           I   N=           1
           0
Nuclear spins                              I   N=           1
           0
Nuclear ZEff                               R   N=           1
 -1.36000000E+01
Nuclear ZNuc                               R   N=           1
  1.60000000E+01
Nuclear QMom                               R   N=           1
  0.00000000E+00
Nuclear GFac                               R   N=           1
  0.00000000E+00
MicOpt                                     I   N=           1
          -1
Number of contracted shells                I               12
Number of primitive shells                 I               47
Pure/Cartesian d shells                    I                0
Pure/Cartesian f shells                    I                0
Highest angular momentum                   I                3
Largest degree of contraction              I               11
Shell types                                I   N=          12
           0           0           0           0           0           1
           1           1           1          -2          -2          -3
Number of primitives per shell             I   N=          12
          11           9           8           1           1           6
           6           1           1           1           1           1
Shell to atom map                          I   N=          12
           1           1           1           1           1           1
           1           1           1           1           1           1
Primitive exponents                        R   N=          47
  3.74100000E+05  5.60500000E+04  1.27600000E+04  3.61500000E+03  1.18300000E+03
  4.28800000E+02  1.67800000E+02  6.94700000E+01  2.98400000E+01  1.27200000E+01
  5.24400000E+00  3.61500000E+03  1.18300000E+03  4.28800000E+02  1.67800000E+02
  6.94700000E+01  2.98400000E+01  1.27200000E+01  5.24400000E+00  2.21900000E+00
  1.18300000E+03  1.67800000E+02  6.94700000E+01  2.98400000E+01  1.27200000E+01
  5.24400000E+00  2.21900000E+00  3.49000000E-01  7.76700000E-01  1.32200000E-01
  5.74400000E+02  1.35800000E+02  4.31900000E+01  1.58700000E+01  6.20800000E+00
  2.48300000E+00  1.35800000E+02  4.31900000E+01  1.58700000E+01  6.20800000E+00
  2.48300000E+00  3.22900000E-01  8.68800000E-01  1.09800000E-01  2.69000000E-01
  8.19000000E-01  5.57000000E-01
Contraction coefficients                   R   N=          47
  5.42511323E-05  4.21179031E-04  2.20866009E-03  9.19959875E-03  3.21373519E-02
  9.47451088E-02  2.23832520E-01  3.74815393E-01  3.29692392E-01  8.46665117E-02
 -1.20363136E-03 -6.41786117E-06 -1.90678474E-04 -1.48897313E-03 -1.01537359E-02
 -4.32108613E-02 -1.05199240E-01  3.20468429E-02  5.22521305E-01  5.46558854E-01
  4.30105874E-06  2.11966580E-04  8.52739027E-04  4.41934171E-03 -1.08618138E-03
 -7.36201171E-02 -3.49985171E-01  1.16002239E+00  1.00000000E+00  1.00000000E+00
  2.49501213E-03  1.98555078E-02  9.11795922E-02  2.62230906E-01  4.46831681E-01
  3.65501017E-01 -7.09174868E-06 -1.06583662E-03 -5.91078853E-03 -2.26881636E-02
 -1.07940061E-02  1.00593373E+00  1.00000000E+00  1.00000000E+00  1.00000000E+00
  1.00000000E+00  1.00000000E+00
Coordinates of each shell                  R   N=          36
  0.00000000E+00  0.00000000E+00  0.00000000E+00  0.00000000E+00  0.00000000E+00
  0.00000000E+00  0.00000000E+00  0.00000000E+00  0.00000000E+00  0.00000000E+00
  0.00000000E+00  0.00000000E+00  0.00000000E+00  0.00000000E+00  0.00000000E+00
  0.00000000E+00  0.00000000E+00  0.00000000E+00  0.00000000E+00  0.00000000E+00
  0.00000000E+00  0.00000000E+00  0.00000000E+00  0.00000000E+00  0.00000000E+00
  0.00000000E+00  0.00000000E+00  0.00000000E+00  0.00000000E+00  0.00000000E+00
  0.00000000E+00  0.00000000E+00  0.00000000E+00  0.00000000E+00  0.00000000E+00
  0.00000000E+00
Constraint Structure                       R   N=           3
  0.00000000E+00  0.00000000E+00  0.00000000E+00
Num ILSW                                   I              100
ILSW                                       I   N=         100
           1           0           0           0           2           0
           0           0           0           0         402          -1
           0           0           0           0           0           0
           0           0           0           0           0           0
           1           0           0           0           0           0
           0           0      100000           0          -1           0
           0           0           0           0           0           0
           0           0           0           1           0           0
           0           0           1           0           0           0
           0           0           4          41           0           0
           0           0           5           0           0           0
           0           0           0           1           0           0
           0           0           0           0           0           0
           0           0           0           0           0           0
           0           0           0           0           0           0
           0           0           0           0           0           0
           0           0           0           0
Num RLSW                                   I               41
RLSW                                       R   N=          41
  8.00000000E-01  7.20000000E-01  1.00000000E+00  8.10000000E-01  2.00000000E-01
  0.00000000E+00  0.00000000E+00  1.00000000E+00  0.00000000E+00  0.00000000E+00
  0.00000000E+00  0.00000000E+00  1.00000000E+00  0.00000000E+00  0.00000000E+00
  0.00000000E+00  0.00000000E+00  1.00000000E+00  0.00000000E+00  0.00000000E+00
  0.00000000E+00  0.00000000E+00  1.00000000E+00  0.00000000E+00  0.00000000E+00
  0.00000000E+00  0.00000000E+00  1.00000000E+00  0.00000000E+00  0.00000000E+00
  0.00000000E+00  0.00000000E+00  1.00000000E+00  0.00000000E+00  0.00000000E+00
  0.00000000E+00  0.00000000E+00  0.00000000E+00  1.00000000E+00  1.00000000E+00
  0.00000000E+00
MxBond                                     I                1
NBond                                      I   N=           1
           0
IBond                                      I   N=           1
           0
RBond                                      R   N=           1
  0.00000000E+00
Virial Ratio                               R      2.002855143645988E+00
SCF Energy                                 R     -3.981386933216296E+02
Total Energy                               R     -3.981386933216296E+02
S**2                                       R      2.003639206598572E+00
S**2 after annihilation                    R      2.000003247842440E+00
RMS Density                                R      7.971729405009864E-09
External E-field                           R   N=          35
  0.00000000E+00  0.00000000E+00  0.00000000E+00  0.00000000E+00  0.00000000E+00
  0.00000000E+00  0.00000000E+00  0.00000000E+00  0.00000000E+00  0.00000000E+00
  0.00000000E+00  0.00000000E+00  0.00000000E+00  0.00000000E+00  0.00000000E+00
  0.00000000E+00  0.00000000E+00  0.00000000E+00  0.00000000E+00  0.00000000E+00
  0.00000000E+00  0.00000000E+00  0.00000000E+00  0.00000000E+00  0.00000000E+00
  0.00000000E+00  0.00000000E+00  0.00000000E+00  0.00000000E+00  0.00000000E+00
  0.00000000E+00  0.00000000E+00  0.00000000E+00  0.00000000E+00  0.00000000E+00
IOpCl                                      I                1
IROHF                                      I                0
Alpha Orbital Energies                     R   N=          34
 -8.89482637E+01 -7.99560291E+00 -5.96518055E+00 -5.96518055E+00 -5.94605071E+00
 -7.25433180E-01 -3.34825169E-01 -3.34825169E-01 -2.87404698E-01  2.67266769E-01
  2.67266769E-01  2.88460947E-01  3.01270710E-01  3.01270711E-01  3.05781017E-01
  3.32360123E-01  3.32360123E-01  3.44179717E-01  1.45041863E+00  1.45041863E+00
  1.48170554E+00  1.48170554E+00  1.49295367E+00  1.57200276E+00  1.57200276E+00
  1.60042752E+00  1.60042752E+00  1.61769019E+00  1.61769019E+00  1.62381179E+00
  1.86007205E+00  1.86007205E+00  1.89778327E+00  3.23908207E+00
Beta Orbital Energies                      R   N=          34
 -8.89373439E+01 -7.98465936E+00 -5.94354630E+00 -5.94354630E+00 -5.93970607E+00
 -6.32519352E-01 -2.62626726E-01 -1.77232940E-01 -1.77232940E-01  2.96227817E-01
  3.04699537E-01  3.04699537E-01  3.36791982E-01  3.76799753E-01  3.76799753E-01
  3.78914189E-01  3.88729809E-01  3.88732885E-01  1.51966782E+00  1.51966782E+00
  1.52230000E+00  1.52412548E+00  1.52412851E+00  1.66048192E+00  1.66048195E+00
  1.66170667E+00  1.66245995E+00  1.66245995E+00  1.66825479E+00  1.66825479E+00
  1.91128495E+00  1.91376689E+00  1.91376689E+00  3.26967726E+00
Alpha MO coefficients                      R   N=        1156
  9.99182145E-01  5.15187526E-03  2.34541402E-03 -3.30122989E-03 -9.05301194E-04
  0.00000000E+00  0.00000000E+00  0.00000000E+00  0.00000000E+00  0.00000000E+00
  0.00000000E+00  0.00000000E+00  0.00000000E+00  0.00000000E+00  0.00000000E+00
  0.00000000E+00  0.00000000E+00 -2.23418017E-07  0.00000000E+00  0.00000000E+00
  3.86971359E-07  0.00000000E+00  3.85477942E-07  0.00000000E+00  0.00000000E+00
 -6.67667383E-07  0.00000000E+00  0.00000000E+00  0.00000000E+00  0.00000000E+00
  0.00000000E+00  0.00000000E+00  0.00000000E+00  0.00000000E+00 -2.75797274E-01
  9.67385107E-01 -1.72428865E-02  9.56155062E-02  4.89111049E-03  0.00000000E+00
  0.00000000E+00  0.00000000E+00  0.00000000E+00  0.00000000E+00  0.00000000E+00
  0.00000000E+00  0.00000000E+00  0.00000000E+00  0.00000000E+00  0.00000000E+00
  0.00000000E+00 -1.78480299E-04  0.00000000E+00  0.00000000E+00  3.09136947E-04
  0.00000000E+00  5.67071710E-04  0.00000000E+00  0.00000000E+00 -9.82197014E-04
  0.00000000E+00  0.00000000E+00  0.00000000E+00  0.00000000E+00  0.00000000E+00
  0.00000000E+00  0.00000000E+00  0.00000000E+00  0.00000000E+00  0.00000000E+00
  0.00000000E+00  0.00000000E+00  0.00000000E+00  0.00000000E+00  0.00000000E+00
  9.67494142E-01  0.00000000E+00  0.00000000E+00 -4.99729238E-03  0.00000000E+00
  0.00000000E+00  6.89325220E-02  0.00000000E+00  0.00000000E+00  1.23155459E-03
  0.00000000E+00  0.00000000E+00  0.00000000E+00  0.00000000E+00  0.00000000E+00
  0.00000000E+00  0.00000000E+00  0.00000000E+00  0.00000000E+00  0.00000000E+00
  2.27813200E-04  0.00000000E+00  0.00000000E+00 -2.94105547E-04  0.00000000E+00
  0.00000000E+00  0.00000000E+00  0.00000000E+00  0.00000000E+00  0.00000000E+00
  0.00000000E+00  0.00000000E+00  0.00000000E+00  9.67494142E-01  0.00000000E+00
  0.00000000E+00 -4.99729238E-03  0.00000000E+00  0.00000000E+00  6.89325220E-02
  0.00000000E+00  0.00000000E+00  1.23155459E-03  0.00000000E+00  0.00000000E+00
  0.00000000E+00  0.00000000E+00  0.00000000E+00  0.00000000E+00  0.00000000E+00
  0.00000000E+00  0.00000000E+00  0.00000000E+00  0.00000000E+00  0.00000000E+00
  0.00000000E+00  9.30043260E-05  0.00000000E+00  0.00000000E+00  0.00000000E+00
 -3.60204279E-04  0.00000000E+00  0.00000000E+00  0.00000000E+00  0.00000000E+00
  0.00000000E+00  9.68168543E-01  0.00000000E+00  0.00000000E+00 -4.76732161E-03
  0.00000000E+00  0.00000000E+00  6.75306607E-02  0.00000000E+00  0.00000000E+00
  1.14704061E-03  0.00000000E+00  0.00000000E+00  0.00000000E+00  0.00000000E+00
  0.00000000E+00  0.00000000E+00  0.00000000E+00  0.00000000E+00  0.00000000E+00
  0.00000000E+00  0.00000000E+00  0.00000000E+00  0.00000000E+00  2.78256255E-04
  0.00000000E+00  0.00000000E+00  0.00000000E+00 -3.59227281E-04  0.00000000E+00
  8.46093649E-02 -3.19845354E-01  6.33137933E-01  9.74713663E-02  3.64538660E-01
  0.00000000E+00  0.00000000E+00  0.00000000E+00  0.00000000E+00  0.00000000E+00
  0.00000000E+00  0.00000000E+00  0.00000000E+00  0.00000000E+00  0.00000000E+00
  0.00000000E+00  0.00000000E+00  1.01710956E-02  0.00000000E+00  0.00000000E+00
 -1.76168544E-02  0.00000000E+00  9.34660155E-03  0.00000000E+00  0.00000000E+00
 -1.61887888E-02  0.00000000E+00  0.00000000E+00  0.00000000E+00  0.00000000E+00
  0.00000000E+00  0.00000000E+00  0.00000000E+00  0.00000000E+00  0.00000000E+00
  0.00000000E+00  0.00000000E+00  0.00000000E+00  0.00000000E+00  0.00000000E+00
 -2.62311239E-01  0.00000000E+00  0.00000000E+00  5.65922848E-01  0.00000000E+00
  0.00000000E+00  2.50159925E-01  0.00000000E+00  0.00000000E+00  3.48233154E-01
  0.00000000E+00  0.00000000E+00  0.00000000E+00  0.00000000E+00  0.00000000E+00
  0.00000000E+00  0.00000000E+00  0.00000000E+00  0.00000000E+00  0.00000000E+00
  0.00000000E+00  0.00000000E+00  0.00000000E+00  3.37418862E-03  0.00000000E+00
  0.00000000E+00  0.00000000E+00 -1.30681778E-02  0.00000000E+00  0.00000000E+00
  0.00000000E+00  0.00000000E+00  0.00000000E+00  0.00000000E+00  0.00000000E+00
 -2.62311239E-01  0.00000000E+00  0.00000000E+00  5.65922848E-01  0.00000000E+00
  0.00000000E+00  2.50159925E-01  0.00000000E+00  0.00000000E+00  3.48233154E-01
  0.00000000E+00  0.00000000E+00  0.00000000E+00  0.00000000E+00  0.00000000E+00
  0.00000000E+00  0.00000000E+00  0.00000000E+00  0.00000000E+00  0.00000000E+00
  8.26504158E-03  0.00000000E+00  0.00000000E+00 -1.06701222E-02  0.00000000E+00
  0.00000000E+00  0.00000000E+00  0.00000000E+00  0.00000000E+00  0.00000000E+00
  0.00000000E+00  0.00000000E+00 -2.57719476E-01  0.00000000E+00  0.00000000E+00
  5.32495516E-01  0.00000000E+00  0.00000000E+00  2.49593818E-01  0.00000000E+00
  0.00000000E+00  3.87660118E-01  0.00000000E+00  0.00000000E+00  0.00000000E+00
  0.00000000E+00  0.00000000E+00  0.00000000E+00  0.00000000E+00  0.00000000E+00
  0.00000000E+00  0.00000000E+00  0.00000000E+00  0.00000000E+00  0.00000000E+00
  1.02814226E-02  0.00000000E+00  0.00000000E+00  0.00000000E+00 -1.32732595E-02
  0.00000000E+00  0.00000000E+00  0.00000000E+00  0.00000000E+00  0.00000000E+00
  0.00000000E+00  0.00000000E+00  1.58320721E-01  0.00000000E+00  0.00000000E+00
 -1.08239217E+00  0.00000000E+00  0.00000000E+00 -9.92789042E-02  0.00000000E+00
  0.00000000E+00  1.36056064E+00  0.00000000E+00  0.00000000E+00  0.00000000E+00
  0.00000000E+00  0.00000000E+00  0.00000000E+00  0.00000000E+00  0.00000000E+00
  0.00000000E+00  0.00000000E+00  0.00000000E+00  0.00000000E+00  0.00000000E+00
 -1.63549616E-03  0.00000000E+00  0.00000000E+00  0.00000000E+00  6.33424977E-03
  0.00000000E+00  0.00000000E+00  0.00000000E+00  0.00000000E+00  0.00000000E+00
  0.00000000E+00  0.00000000E+00  1.58320721E-01  0.00000000E+00  0.00000000E+00
 -1.08239217E+00  0.00000000E+00  0.00000000E+00 -9.92789042E-02  0.00000000E+00
  0.00000000E+00  1.36056064E+00  0.00000000E+00  0.00000000E+00  0.00000000E+00
  0.00000000E+00  0.00000000E+00  0.00000000E+00  0.00000000E+00  0.00000000E+00
  0.00000000E+00  0.00000000E+00 -4.00613137E-03  0.00000000E+00  0.00000000E+00
  5.17189320E-03  0.00000000E+00  0.00000000E+00  0.00000000E+00  0.00000000E+00
  0.00000000E+00  0.00000000E+00  0.00000000E+00  0.00000000E+00  1.61879870E-01
  0.00000000E+00  0.00000000E+00 -1.10820709E+00  0.00000000E+00  0.00000000E+00
 -9.64997637E-02  0.00000000E+00  0.00000000E+00  1.35399155E+00  0.00000000E+00
  0.00000000E+00  0.00000000E+00  0.00000000E+00  0.00000000E+00  0.00000000E+00
  0.00000000E+00  0.00000000E+00  0.00000000E+00  0.00000000E+00  0.00000000E+00
  0.00000000E+00  0.00000000E+00 -5.39185533E-03  0.00000000E+00  0.00000000E+00
  0.00000000E+00  6.96085530E-03  0.00000000E+00  5.78048508E-14  7.87404454E-14
  1.08886612E-12  6.43933822E-14 -1.21856289E-12  0.00000000E+00  0.00000000E+00
  0.00000000E+00  0.00000000E+00  0.00000000E+00  0.00000000E+00  0.00000000E+00
  0.00000000E+00  0.00000000E+00  0.00000000E+00  0.00000000E+00  0.00000000E+00
  7.49086010E-01  0.00000000E+00  0.00000000E+00  4.32485010E-01  0.00000000E+00
  1.76458466E-01  0.00000000E+00  0.00000000E+00  1.01878343E-01  0.00000000E+00
  0.00000000E+00  0.00000000E+00  0.00000000E+00  0.00000000E+00  0.00000000E+00
  0.00000000E+00  0.00000000E+00  0.00000000E+00  0.00000000E+00  0.00000000E+00
  0.00000000E+00  0.00000000E+00  0.00000000E+00  0.00000000E+00  0.00000000E+00
  0.00000000E+00  0.00000000E+00  0.00000000E+00  0.00000000E+00  0.00000000E+00
  0.00000000E+00  0.00000000E+00  0.00000000E+00  0.00000000E+00  0.00000000E+00
  0.00000000E+00  8.64970019E-01  0.00000000E+00  0.00000000E+00  0.00000000E+00
  0.00000000E+00  2.03756685E-01  0.00000000E+00  0.00000000E+00  0.00000000E+00
  0.00000000E+00  0.00000000E+00  0.00000000E+00  0.00000000E+00  0.00000000E+00
  0.00000000E+00 -9.17326460E-02 -1.23725034E-01 -1.72708310E+00 -1.05324891E-01
  1.93719003E+00  0.00000000E+00  0.00000000E+00  0.00000000E+00  0.00000000E+00
  0.00000000E+00  0.00000000E+00  0.00000000E+00  0.00000000E+00  0.00000000E+00
  0.00000000E+00  0.00000000E+00  0.00000000E+00  3.88341622E-02  0.00000000E+00
  0.00000000E+00 -6.72627420E-02  0.00000000E+00 -5.43148492E-03  0.00000000E+00
  0.00000000E+00  9.40760784E-03  0.00000000E+00  0.00000000E+00  0.00000000E+00
  0.00000000E+00  0.00000000E+00  0.00000000E+00  0.00000000E+00  0.00000000E+00
  0.00000000E+00  0.00000000E+00  0.00000000E+00  0.00000000E+00  0.00000000E+00
  0.00000000E+00  0.00000000E+00  0.00000000E+00  0.00000000E+00  0.00000000E+00
  0.00000000E+00  0.00000000E+00  0.00000000E+00  0.00000000E+00  0.00000000E+00
  0.00000000E+00  0.00000000E+00  0.00000000E+00  0.00000000E+00  0.00000000E+00
  0.00000000E+00  8.71584769E-01  0.00000000E+00  0.00000000E+00  0.00000000E+00
  0.00000000E+00  1.94653102E-01  0.00000000E+00  0.00000000E+00  0.00000000E+00
  0.00000000E+00  0.00000000E+00  0.00000000E+00  0.00000000E+00  0.00000000E+00
  0.00000000E+00  0.00000000E+00  0.00000000E+00  0.00000000E+00  0.00000000E+00
  0.00000000E+00  0.00000000E+00  0.00000000E+00  0.00000000E+00  0.00000000E+00
  0.00000000E+00  0.00000000E+00  0.00000000E+00  0.00000000E+00  0.00000000E+00
  0.00000000E+00  0.00000000E+00  8.71584769E-01  0.00000000E+00  0.00000000E+00
  0.00000000E+00  0.00000000E+00  1.94653102E-01  0.00000000E+00  0.00000000E+00
  0.00000000E+00  0.00000000E+00  0.00000000E+00  0.00000000E+00  0.00000000E+00
  0.00000000E+00  0.00000000E+00  0.00000000E+00 -3.64342525E-03 -2.79569298E-02
 -1.10891751E-01  9.19580045E-03  1.51541721E-01  0.00000000E+00  0.00000000E+00
  0.00000000E+00  0.00000000E+00  0.00000000E+00  0.00000000E+00  0.00000000E+00
  0.00000000E+00  0.00000000E+00  0.00000000E+00  0.00000000E+00  0.00000000E+00
 -4.35223157E-01  0.00000000E+00  0.00000000E+00  7.53828620E-01  0.00000000E+00
 -9.60486927E-02  0.00000000E+00  0.00000000E+00  1.66361216E-01  0.00000000E+00
  0.00000000E+00  0.00000000E+00  0.00000000E+00  0.00000000E+00  0.00000000E+00
  0.00000000E+00  0.00000000E+00  1.25422338E-16  1.65297177E-15  5.16319749E-15
 -1.67092884E-15 -5.22036042E-15  0.00000000E+00  0.00000000E+00  0.00000000E+00
  0.00000000E+00  0.00000000E+00  0.00000000E+00  0.00000000E+00  0.00000000E+00
  0.00000000E+00  0.00000000E+00  0.00000000E+00  0.00000000E+00 -7.76816072E-01
  0.00000000E+00  0.00000000E+00 -4.48494969E-01  0.00000000E+00  1.06462926E+00
  0.00000000E+00  0.00000000E+00  6.14663992E-01  0.00000000E+00  0.00000000E+00
  0.00000000E+00  0.00000000E+00  0.00000000E+00  0.00000000E+00  0.00000000E+00
  0.00000000E+00  0.00000000E+00  0.00000000E+00  0.00000000E+00  0.00000000E+00
  0.00000000E+00  0.00000000E+00  0.00000000E+00  0.00000000E+00  0.00000000E+00
  0.00000000E+00  0.00000000E+00  0.00000000E+00  0.00000000E+00  0.00000000E+00
  0.00000000E+00  0.00000000E+00  0.00000000E+00  0.00000000E+00  0.00000000E+00
 -8.96989937E-01  0.00000000E+00  0.00000000E+00  0.00000000E+00  0.00000000E+00
  1.22932798E+00  0.00000000E+00  0.00000000E+00  0.00000000E+00  0.00000000E+00
  0.00000000E+00  0.00000000E+00  0.00000000E+00  0.00000000E+00  0.00000000E+00
  0.00000000E+00  0.00000000E+00  0.00000000E+00  0.00000000E+00  0.00000000E+00
  0.00000000E+00  0.00000000E+00  0.00000000E+00  0.00000000E+00  0.00000000E+00
  0.00000000E+00  0.00000000E+00  0.00000000E+00  0.00000000E+00  0.00000000E+00
  0.00000000E+00  0.00000000E+00  0.00000000E+00  0.00000000E+00  0.00000000E+00
  0.00000000E+00 -8.90563906E-01  0.00000000E+00  0.00000000E+00  0.00000000E+00
  0.00000000E+00  1.23080228E+00  0.00000000E+00  0.00000000E+00  0.00000000E+00
  0.00000000E+00  0.00000000E+00  0.00000000E+00  0.00000000E+00  0.00000000E+00
  0.00000000E+00  0.00000000E+00  0.00000000E+00  0.00000000E+00  0.00000000E+00
  0.00000000E+00  0.00000000E+00  0.00000000E+00  0.00000000E+00  0.00000000E+00
  0.00000000E+00  0.00000000E+00  0.00000000E+00  0.00000000E+00  0.00000000E+00
  0.00000000E+00  0.00000000E+00 -8.90563906E-01  0.00000000E+00  0.00000000E+00
  0.00000000E+00  0.00000000E+00  1.23080228E+00  0.00000000E+00  0.00000000E+00
  0.00000000E+00  0.00000000E+00  0.00000000E+00  0.00000000E+00  0.00000000E+00
  0.00000000E+00  0.00000000E+00  0.00000000E+00  2.41313625E-03  7.81750799E-03
  5.08811989E-02 -8.08542272E-03 -3.88484015E-02  0.00000000E+00  0.00000000E+00
  0.00000000E+00  0.00000000E+00  0.00000000E+00  0.00000000E+00  0.00000000E+00
  0.00000000E+00  0.00000000E+00  0.00000000E+00  0.00000000E+00  0.00000000E+00
  4.44017714E-01  0.00000000E+00  0.00000000E+00 -7.69061240E-01  0.00000000E+00
 -6.15504778E-01  0.00000000E+00  0.00000000E+00  1.06608555E+00  0.00000000E+00
  0.00000000E+00  0.00000000E+00  0.00000000E+00  0.00000000E+00  0.00000000E+00
  0.00000000E+00  0.00000000E+00  0.00000000E+00  0.00000000E+00  0.00000000E+00
  0.00000000E+00  0.00000000E+00  0.00000000E+00 -3.69679507E-10  0.00000000E+00
  0.00000000E+00 -6.10609639E-10  0.00000000E+00  0.00000000E+00  9.41254060E-10
  0.00000000E+00  0.00000000E+00  3.50185460E-10  0.00000000E+00  0.00000000E+00
  0.00000000E+00  0.00000000E+00  0.00000000E+00  0.00000000E+00  0.00000000E+00
  0.00000000E+00  0.00000000E+00  0.00000000E+00  0.00000000E+00  0.00000000E+00
  0.00000000E+00  9.68245837E-01  0.00000000E+00  0.00000000E+00  0.00000000E+00
  2.49999998E-01  0.00000000E+00  0.00000000E+00  0.00000000E+00  0.00000000E+00
  0.00000000E+00  0.00000000E+00  0.00000000E+00  3.69671376E-10  0.00000000E+00
  0.00000000E+00  6.10586655E-10  0.00000000E+00  0.00000000E+00 -9.41229988E-10
  0.00000000E+00  0.00000000E+00 -3.50179356E-10  0.00000000E+00  0.00000000E+00
  0.00000000E+00  0.00000000E+00  0.00000000E+00  0.00000000E+00  0.00000000E+00
  0.00000000E+00  0.00000000E+00  0.00000000E+00  7.90569413E-01  0.00000000E+00
  0.00000000E+00  6.12372438E-01  0.00000000E+00  0.00000000E+00  0.00000000E+00
  0.00000000E+00  0.00000000E+00  0.00000000E+00  0.00000000E+00  0.00000000E+00
 -8.49612033E-14  0.00000000E+00  0.00000000E+00 -2.34030643E-13  0.00000000E+00
  0.00000000E+00  2.45492217E-13  0.00000000E+00  0.00000000E+00  7.68618744E-14
  0.00000000E+00  0.00000000E+00  0.00000000E+00  0.00000000E+00  0.00000000E+00
  0.00000000E+00  0.00000000E+00  0.00000000E+00  0.00000000E+00  0.00000000E+00
  0.00000000E+00  0.00000000E+00  0.00000000E+00  7.90569415E-01  0.00000000E+00
  0.00000000E+00  0.00000000E+00  6.12372436E-01  0.00000000E+00  0.00000000E+00
  0.00000000E+00  0.00000000E+00  0.00000000E+00  0.00000000E+00  0.00000000E+00
  0.00000000E+00  0.00000000E+00  0.00000000E+00  0.00000000E+00  0.00000000E+00
  0.00000000E+00  0.00000000E+00  0.00000000E+00  0.00000000E+00  0.00000000E+00
  0.00000000E+00  0.00000000E+00  0.00000000E+00  0.00000000E+00  0.00000000E+00
  0.00000000E+00  0.00000000E+00  0.00000000E+00  0.00000000E+00  0.00000000E+00
  0.00000000E+00  0.00000000E+00  0.00000000E+00  0.00000000E+00  0.00000000E+00
  1.00000000E+00  0.00000000E+00  0.00000000E+00  0.00000000E+00  0.00000000E+00
  0.00000000E+00  0.00000000E+00  0.00000000E+00  0.00000000E+00 -2.12315325E-02
  0.00000000E+00  0.00000000E+00 -3.74446938E-02  0.00000000E+00  0.00000000E+00
  5.43803553E-02  0.00000000E+00  0.00000000E+00  1.56833961E-02  0.00000000E+00
  0.00000000E+00  0.00000000E+00  0.00000000E+00  0.00000000E+00  0.00000000E+00
  0.00000000E+00  0.00000000E+00  0.00000000E+00  0.00000000E+00  0.00000000E+00
  0.00000000E+00  0.00000000E+00 -2.49884215E-01  0.00000000E+00  0.00000000E+00
  0.00000000E+00  9.67797413E-01  0.00000000E+00  0.00000000E+00  0.00000000E+00
  0.00000000E+00  0.00000000E+00  0.00000000E+00  0.00000000E+00 -2.12315325E-02
  0.00000000E+00  0.00000000E+00 -3.74446938E-02  0.00000000E+00  0.00000000E+00
  5.43803553E-02  0.00000000E+00  0.00000000E+00  1.56833961E-02  0.00000000E+00
  0.00000000E+00  0.00000000E+00  0.00000000E+00  0.00000000E+00  0.00000000E+00
  0.00000000E+00  0.00000000E+00  0.00000000E+00  0.00000000E+00 -6.12088829E-01
  0.00000000E+00  0.00000000E+00  7.90203277E-01  0.00000000E+00  0.00000000E+00
  0.00000000E+00  0.00000000E+00  0.00000000E+00  0.00000000E+00  0.00000000E+00
  0.00000000E+00 -2.39104114E-02  0.00000000E+00  0.00000000E+00 -3.81769103E-02
  0.00000000E+00  0.00000000E+00  6.00935802E-02  0.00000000E+00  0.00000000E+00
  1.61059363E-02  0.00000000E+00  0.00000000E+00  0.00000000E+00  0.00000000E+00
  0.00000000E+00  0.00000000E+00  0.00000000E+00  0.00000000E+00  0.00000000E+00
  0.00000000E+00  0.00000000E+00  0.00000000E+00  0.00000000E+00 -6.12005801E-01
  0.00000000E+00  0.00000000E+00  0.00000000E+00  7.90096091E-01  0.00000000E+00
  0.00000000E+00  0.00000000E+00  0.00000000E+00  0.00000000E+00  0.00000000E+00
  0.00000000E+00  6.42314138E-01  0.00000000E+00  0.00000000E+00  1.96954735E+00
  0.00000000E+00  0.00000000E+00 -1.90001452E+00  0.00000000E+00  0.00000000E+00
 -7.50749867E-01  0.00000000E+00  0.00000000E+00  0.00000000E+00  0.00000000E+00
  0.00000000E+00  0.00000000E+00  0.00000000E+00  0.00000000E+00  0.00000000E+00
  0.00000000E+00  0.00000000E+00  0.00000000E+00  0.00000000E+00 -6.61885647E-03
  0.00000000E+00  0.00000000E+00  0.00000000E+00  2.56347229E-02  0.00000000E+00
  0.00000000E+00  0.00000000E+00  0.00000000E+00  0.00000000E+00  0.00000000E+00
  0.00000000E+00  6.42314138E-01  0.00000000E+00  0.00000000E+00  1.96954735E+00
  0.00000000E+00  0.00000000E+00 -1.90001452E+00  0.00000000E+00  0.00000000E+00
 -7.50749867E-01  0.00000000E+00  0.00000000E+00  0.00000000E+00  0.00000000E+00
  0.00000000E+00  0.00000000E+00  0.00000000E+00  0.00000000E+00  0.00000000E+00
  0.00000000E+00 -1.62128227E-02  0.00000000E+00  0.00000000E+00  2.09306632E-02
  0.00000000E+00  0.00000000E+00  0.00000000E+00  0.00000000E+00  0.00000000E+00
  0.00000000E+00  0.00000000E+00  0.00000000E+00  6.42175462E-01  0.00000000E+00
  0.00000000E+00  1.96449247E+00  0.00000000E+00  0.00000000E+00 -1.90011039E+00
  0.00000000E+00  0.00000000E+00 -7.43256499E-01  0.00000000E+00  0.00000000E+00
  0.00000000E+00  0.00000000E+00  0.00000000E+00  0.00000000E+00  0.00000000E+00
  0.00000000E+00  0.00000000E+00  0.00000000E+00  0.00000000E+00  0.00000000E+00
  0.00000000E+00 -1.77212528E-02  0.00000000E+00  0.00000000E+00  0.00000000E+00
  2.28780390E-02  0.00000000E+00 -1.50374863E-03 -2.53817097E+00 -3.50428751E+00
  3.66888588E+00  1.46225683E+00  0.00000000E+00  0.00000000E+00  0.00000000E+00
  0.00000000E+00  0.00000000E+00  0.00000000E+00  0.00000000E+00  0.00000000E+00
  0.00000000E+00  0.00000000E+00  0.00000000E+00  0.00000000E+00  2.91864468E-03
  0.00000000E+00  0.00000000E+00 -5.05524088E-03  0.00000000E+00 -1.53471327E-03
  0.00000000E+00  0.00000000E+00  2.65820136E-03  0.00000000E+00  0.00000000E+00
  0.00000000E+00  0.00000000E+00  0.00000000E+00  0.00000000E+00  0.00000000E+00
  0.00000000E+00
Beta MO coefficients                       R   N=        1156
  9.99199385E-01  5.01626699E-03  2.27448914E-03 -3.18575461E-03 -8.77044757E-04
  0.00000000E+00  0.00000000E+00  0.00000000E+00  0.00000000E+00  0.00000000E+00
  0.00000000E+00  0.00000000E+00  0.00000000E+00  0.00000000E+00  0.00000000E+00