 Entering Gaussian System, Link 0=g16
 Initial command:
 /sob/g16/l1.exe "/sob2/gauscr/Gau-29924.inp" -scrdir="/sob2/gauscr/"
 Default is to use a total of  36 processors:
                               36 via shared-memory
                                1 via Linda
 Entering Link 1 = /sob/g16/l1.exe PID=     29925.
  
 Copyright (c) 1988,1990,1992,1993,1995,1998,2003,2009,2016,
            Gaussian, Inc.  All Rights Reserved.
  
 This is part of the Gaussian(R) 16 program.  It is based on
 the Gaussian(R) 09 system (copyright 2009, Gaussian, Inc.),
 the Gaussian(R) 03 system (copyright 2003, Gaussian, Inc.),
 the Gaussian(R) 98 system (copyright 1998, Gaussian, Inc.),
 the Gaussian(R) 94 system (copyright 1995, Gaussian, Inc.),
 the Gaussian 92(TM) system (copyright 1992, Gaussian, Inc.),
 the Gaussian 90(TM) system (copyright 1990, Gaussian, Inc.),
 the Gaussian 88(TM) system (copyright 1988, Gaussian, Inc.),
 the Gaussian 86(TM) system (copyright 1986, Carnegie Mellon
 University), and the Gaussian 82(TM) system (copyright 1983,
 Carnegie Mellon University). Gaussian is a federally registered
 trademark of Gaussian, Inc.
  
 This software contains proprietary and confidential information,
 including trade secrets, belonging to Gaussian, Inc.
  
 This software is provided under written license and may be
 used, copied, transmitted, or stored only in accord with that
 written license.
  
 The following legend is applicable only to US Government
 contracts under FAR:
  
                    RESTRICTED RIGHTS LEGEND
  
 Use, reproduction and disclosure by the US Government is
 subject to restrictions as set forth in subparagraphs (a)
 and (c) of the Commercial Computer Software - Restricted
 Rights clause in FAR 52.227-19.
  
 Gaussian, Inc.
 340 Quinnipiac St., Bldg. 40, Wallingford CT 06492
  
  
 ---------------------------------------------------------------
 Warning -- This program may not be used in any manner that
 competes with the business of Gaussian, Inc. or will provide
 assistance to any competitor of Gaussian, Inc.  The licensee
 of this program is prohibited from giving any competitor of
 Gaussian, Inc. access to this program.  By using this program,
 the user acknowledges that Gaussian, Inc. is engaged in the
 business of creating and licensing software in the field of
 computational chemistry and represents and warrants to the
 licensee that it is not a competitor of Gaussian, Inc. and that
 it will not use this program in any manner prohibited above.
 ---------------------------------------------------------------
  

 Cite this work as:
 Gaussian 16, Revision A.03,
 M. J. Frisch, G. W. Trucks, H. B. Schlegel, G. E. Scuseria, 
 M. A. Robb, J. R. Cheeseman, G. Scalmani, V. Barone, 
 G. A. Petersson, H. Nakatsuji, X. Li, M. Caricato, A. V. Marenich, 
 J. Bloino, B. G. Janesko, R. Gomperts, B. Mennucci, H. P. Hratchian, 
 J. V. Ortiz, A. F. Izmaylov, J. L. Sonnenberg, D. Williams-Young, 
 F. Ding, F. Lipparini, F. Egidi, J. Goings, B. Peng, A. Petrone, 
 T. Henderson, D. Ranasinghe, V. G. Zakrzewski, J. Gao, N. Rega, 
 G. Zheng, W. Liang, M. Hada, M. Ehara, K. Toyota, R. Fukuda, 
 J. Hasegawa, M. Ishida, T. Nakajima, Y. Honda, O. Kitao, H. Nakai, 
 T. Vreven, K. Throssell, J. A. Montgomery, Jr., J. E. Peralta, 
 F. Ogliaro, M. J. Bearpark, J. J. Heyd, E. N. Brothers, K. N. Kudin, 
 V. N. Staroverov, T. A. Keith, R. Kobayashi, J. Normand, 
 K. Raghavachari, A. P. Rendell, J. C. Burant, S. S. Iyengar, 
 J. Tomasi, M. Cossi, J. M. Millam, M. Klene, C. Adamo, R. Cammi, 
 J. W. Ochterski, R. L. Martin, K. Morokuma, O. Farkas, 
 J. B. Foresman, and D. J. Fox, Gaussian, Inc., Wallingford CT, 2016.
 
 ******************************************
 Gaussian 16:  ES64L-G16RevA.03 25-Dec-2016
                13-Aug-2020 
 ******************************************
 ------------------------
 # B972/def2TZVP NMR scrf
 ------------------------
 1/38=1,172=1/1;
 2/12=2,17=6,18=5,40=1/2;
 3/5=44,7=101,11=2,25=1,30=1,70=2201,74=-21/1,2,3,8;
 4//1;
 5/5=2,38=5/2;
 8/6=1,10=90,11=11/1;
 10/13=100,45=16/2;
 6/7=2,8=2,9=2,10=2,28=1/1;
 99/9=1/99;
 -------------------
 Title Card Required
 -------------------
 Symbolic Z-matrix:
 Charge =  0 Multiplicity = 1
 Si                    0.        0.        0. 
 C                     1.08869   1.08869   1.08869 
 H                     1.73306   1.73306   0.48263 
 H                     0.48263   1.73306   1.73306 
 H                     1.73306   0.48263   1.73306 
 C                    -1.08869  -1.08869   1.08869 
 H                    -1.73306  -0.48263   1.73306 
 H                    -1.73306  -1.73306   0.48263 
 H                    -0.48263  -1.73306   1.73306 
 C                    -1.08869   1.08869  -1.08869 
 H                    -0.48263   1.73306  -1.73306 
 H                    -1.73306   0.48263  -1.73306 
 H                    -1.73306   1.73306  -0.48263 
 C                     1.08869  -1.08869  -1.08869 
 H                     0.48263  -1.73306  -1.73306 
 H                     1.73306  -0.48263  -1.73306 
 H                     1.73306  -1.73306  -0.48263 
 
                          Input orientation:                          
 ---------------------------------------------------------------------
 Center     Atomic      Atomic             Coordinates (Angstroms)
 Number     Number       Type             X           Y           Z
 ---------------------------------------------------------------------
      1         14           0        0.000000    0.000000    0.000000
      2          6           0        1.088689    1.088689    1.088689
      3          1           0        1.733064    1.733064    0.482626
      4          1           0        0.482626    1.733064    1.733064
      5          1           0        1.733064    0.482626    1.733064
      6          6           0       -1.088689   -1.088689    1.088689
      7          1           0       -1.733064   -0.482626    1.733064
      8          1           0       -1.733064   -1.733064    0.482626
      9          1           0       -0.482626   -1.733064    1.733064
     10          6           0       -1.088689    1.088689   -1.088689
     11          1           0       -0.482626    1.733064   -1.733064
     12          1           0       -1.733064    0.482626   -1.733064
     13          1           0       -1.733064    1.733064   -0.482626
     14          6           0        1.088689   -1.088689   -1.088689
     15          1           0        0.482626   -1.733064   -1.733064
     16          1           0        1.733064   -0.482626   -1.733064
     17          1           0        1.733064   -1.733064   -0.482626
 ---------------------------------------------------------------------
                    Distance matrix (angstroms):
                    1          2          3          4          5
     1  Si   0.000000
     2  C    1.885665   0.000000
     3  H    2.497989   1.094418   0.000000
     4  H    2.497989   1.094418   1.768386   0.000000
     5  H    2.497989   1.094418   1.768386   1.768386   0.000000
     6  C    1.885665   3.079277   4.036322   3.293409   3.293409
     7  H    2.497989   3.293409   4.299642   3.133459   3.598021
     8  H    2.497989   4.036322   4.901845   4.299642   4.299642
     9  H    2.497989   3.293409   4.299642   3.598021   3.133459
    10  C    1.885665   3.079277   3.293409   3.293409   4.036322
    11  H    2.497989   3.293409   3.133459   3.598021   4.299642
    12  H    2.497989   4.036322   4.299642   4.299642   4.901845
    13  H    2.497989   3.293409   3.598021   3.133459   4.299642
    14  C    1.885665   3.079277   3.293409   4.036322   3.293409
    15  H    2.497989   4.036322   4.299642   4.901845   4.299642
    16  H    2.497989   3.293409   3.133459   4.299642   3.598021
    17  H    2.497989   3.293409   3.598021   4.299642   3.133459
                    6          7          8          9         10
     6  C    0.000000
     7  H    1.094418   0.000000
     8  H    1.094418   1.768386   0.000000
     9  H    1.094418   1.768386   1.768386   0.000000
    10  C    3.079277   3.293409   3.293409   4.036322   0.000000
    11  H    4.036322   4.299642   4.299642   4.901845   1.094418
    12  H    3.293409   3.598021   3.133459   4.299642   1.094418
    13  H    3.293409   3.133459   3.598021   4.299642   1.094418
    14  C    3.079277   4.036322   3.293409   3.293409   3.079277
    15  H    3.293409   4.299642   3.133459   3.598021   3.293409
    16  H    4.036322   4.901845   4.299642   4.299642   3.293409
    17  H    3.293409   4.299642   3.598021   3.133459   4.036322
                   11         12         13         14         15
    11  H    0.000000
    12  H    1.768386   0.000000
    13  H    1.768386   1.768386   0.000000
    14  C    3.293409   3.293409   4.036322   0.000000
    15  H    3.598021   3.133459   4.299642   1.094418   0.000000
    16  H    3.133459   3.598021   4.299642   1.094418   1.768386
    17  H    4.299642   4.299642   4.901845   1.094418   1.768386
                   16         17
    16  H    0.000000
    17  H    1.768386   0.000000
 Stoichiometry    C4H12Si
 Framework group  TD[O(Si),4C3(C),6SGD(H2)]
 Deg. of freedom     3
 Full point group                 TD      NOp  24
 Largest Abelian subgroup         D2      NOp   4
 Largest concise Abelian subgroup D2      NOp   4
                         Standard orientation:                         
 ---------------------------------------------------------------------
 Center     Atomic      Atomic             Coordinates (Angstroms)
 Number     Number       Type             X           Y           Z
 ---------------------------------------------------------------------
      1         14           0        0.000000    0.000000    0.000000
      2          6           0        1.088689    1.088689    1.088689
      3          1           0        1.733064    1.733064    0.482626
      4          1           0        0.482626    1.733064    1.733064
      5          1           0        1.733064    0.482626    1.733064
      6          6           0       -1.088689   -1.088689    1.088689
      7          1           0       -1.733064   -0.482626    1.733064
      8          1           0       -1.733064   -1.733064    0.482626
      9          1           0       -0.482626   -1.733064    1.733064
     10          6           0       -1.088689    1.088689   -1.088689
     11          1           0       -0.482626    1.733064   -1.733064
     12          1           0       -1.733064    0.482626   -1.733064
     13          1           0       -1.733064    1.733064   -0.482626
     14          6           0        1.088689   -1.088689   -1.088689
     15          1           0        0.482626   -1.733064   -1.733064
     16          1           0        1.733064   -0.482626   -1.733064
     17          1           0        1.733064   -1.733064   -0.482626
 ---------------------------------------------------------------------
 Rotational constants (GHZ):           3.0798212           3.0798212           3.0798212
 Standard basis: def2TZVP (5D, 7F)
 There are    66 symmetry adapted cartesian basis functions of A   symmetry.
 There are    64 symmetry adapted cartesian basis functions of B1  symmetry.
 There are    64 symmetry adapted cartesian basis functions of B2  symmetry.
 There are    64 symmetry adapted cartesian basis functions of B3  symmetry.
 There are    59 symmetry adapted basis functions of A   symmetry.
 There are    58 symmetry adapted basis functions of B1  symmetry.
 There are    58 symmetry adapted basis functions of B2  symmetry.
 There are    58 symmetry adapted basis functions of B3  symmetry.
   233 basis functions,   369 primitive gaussians,   258 cartesian basis functions
    25 alpha electrons       25 beta electrons
       nuclear repulsion energy       245.3760763449 Hartrees.
 NAtoms=   17 NActive=   17 NUniq=    3 SFac= 4.00D+00 NAtFMM=   60 NAOKFM=F Big=F
 Integral buffers will be    131072 words long.
 Raffenetti 2 integral format.
 Two-electron integral symmetry is turned on.
 ------------------------------------------------------------------------------
 Polarizable Continuum Model (PCM)
 =================================
 Model                : PCM.
 Atomic radii         : UFF (Universal Force Field).
 Polarization charges : Total charges.
 Charge compensation  : None.
 Solution method      : On-the-fly selection.
 Cavity type          : Scaled VdW (van der Waals Surface) (Alpha=1.100).
 Cavity algorithm     : GePol (No added spheres)
                        Default sphere list used, NSphG=   17.
                        Lebedev-Laikov grids with approx.  5.0 points / Ang**2.
                        Smoothing algorithm: York/Karplus (Gamma=1.0000).
                        Polarization charges: spherical gaussians, with
                                              point-specific exponents (IZeta= 3).
                        Self-potential: point-specific (ISelfS= 7).
                        Self-field    : sphere-specific E.n sum rule (ISelfD= 2).
 Solvent              : Water, Eps=  78.355300 Eps(inf)=   1.777849
 ------------------------------------------------------------------------------
 Spheres list:
 ISph  on   Nord     Re0    Alpha      Xe            Ye            Ze
    1  Si      1    2.1475  1.100      0.000000      0.000000      0.000000
    2   C      2    1.9255  1.100      1.088689      1.088689      1.088689
    3   H      3    1.4430  1.100      1.733064      1.733064      0.482626
    4   H      4    1.4430  1.100      0.482626      1.733064      1.733064
    5   H      5    1.4430  1.100      1.733064      0.482626      1.733064
    6   C      6    1.9255  1.100     -1.088689     -1.088689      1.088689
    7   H      7    1.4430  1.100     -1.733064     -0.482626      1.733064
    8   H      8    1.4430  1.100     -1.733064     -1.733064      0.482626
    9   H      9    1.4430  1.100     -0.482626     -1.733064      1.733064
   10   C     10    1.9255  1.100     -1.088689      1.088689     -1.088689
   11   H     11    1.4430  1.100     -0.482626      1.733064     -1.733064
   12   H     12    1.4430  1.100     -1.733064      0.482626     -1.733064
   13   H     13    1.4430  1.100     -1.733064      1.733064     -0.482626
   14   C     14    1.9255  1.100      1.088689     -1.088689     -1.088689
   15   H     15    1.4430  1.100      0.482626     -1.733064     -1.733064
   16   H     16    1.4430  1.100      1.733064     -0.482626     -1.733064
   17   H     17    1.4430  1.100      1.733064     -1.733064     -0.482626
 ------------------------------------------------------------------------------
 One-electron integrals computed using PRISM.
  24 Symmetry operations used in ECPInt.
 ECPInt:  NShTT=    5565 NPrTT=   16270 LenC2=    5532 LenP2D=   13412.
 LDataN:  DoStor=T MaxTD1= 6 Len=  172
 NBasis=   233 RedAO= T EigKep=  5.16D-04  NBF=    59    58    58    58
 NBsUse=   233 1.00D-06 EigRej= -1.00D+00 NBFU=    59    58    58    58
 ExpMin= 7.01D-02 ExpMax= 4.48D+04 ExpMxC= 1.53D+03 IAcc=3 IRadAn=         5 AccDes= 0.00D+00
 Harris functional with IExCor= 1715 and IRadAn=       5 diagonalized for initial guess.
 HarFok:  IExCor= 1715 AccDes= 0.00D+00 IRadAn=         5 IDoV= 1 UseB2=F ITyADJ=14
 ICtDFT=  3500011 ScaDFX=  1.000000  1.000000  1.000000  1.000000
 FoFCou: FMM=F IPFlag=           0 FMFlag=      100000 FMFlg1=           0
         NFxFlg=           0 DoJE=T BraDBF=F KetDBF=T FulRan=T
         wScrn=  0.000000 ICntrl=       500 IOpCl=  0 I1Cent=   200000004 NGrid=           0
         NMat0=    1 NMatS0=      1 NMatT0=    0 NMatD0=    1 NMtDS0=    0 NMtDT0=    0
 Petite list used in FoFCou.
 Initial guess orbital symmetries:
       Occupied  (A1) (T2) (T2) (T2) (A1) (A1) (T2) (T2) (T2) (A1)
                 (T2) (T2) (T2) (A1) (T2) (T2) (T2) (E) (E) (T1)
                 (T1) (T1) (T2) (T2) (T2)
       Virtual   (A1) (T2) (T2) (T2) (T2) (T2) (T2) (E) (E) (T2)
                 (T2) (T2) (A1) (T1) (T1) (T1) (E) (E) (T2) (T2)
                 (T2) (A1) (T2) (T2) (T2) (E) (E) (T1) (T1) (T1)
                 (A1) (T2) (T2) (T2) (T2) (T2) (T2) (T2) (T2) (T2)
                 (T1) (T1) (T1) (A1) (E) (E) (A1) (T2) (T2) (T2)
                 (T2) (T2) (T2) (T1) (T1) (T1) (E) (E) (T2) (T2)
                 (T2) (T2) (T2) (T2) (T2) (T2) (T2) (T1) (T1) (T1)
                 (A1) (E) (E) (T2) (T2) (T2) (E) (E) (T1) (T1)
                 (T1) (A1) (T2) (T2) (T2) (T2) (T2) (T2) (A2) (T1)
                 (T1) (T1) (E) (E) (A1) (T2) (T2) (T2) (T1) (T1)
                 (T1) (T2) (T2) (T2) (T2) (T2) (T2) (A1) (T1) (T1)
                 (T1) (A1) (T2) (T2) (T2) (E) (E) (E) (E) (A1)
                 (T2) (T2) (T2) (T1) (T1) (T1) (T2) (T2) (T2) (E)
                 (E) (T2) (T2) (T2) (T1) (T1) (T1) (T2) (T2) (T2)
                 (T2) (T2) (T2) (E) (E) (T1) (T1) (T1) (T2) (T2)
                 (T2) (A1) (T1) (T1) (T1) (E) (E) (A1) (T1) (T1)
                 (T1) (T2) (T2) (T2) (T2) (T2) (T2) (A2) (T1) (T1)
                 (T1) (E) (E) (T2) (T2) (T2) (A1) (T2) (T2) (T2)
                 (E) (E) (T2) (T2) (T2) (T1) (T1) (T1) (T1) (T1)
                 (T1) (T2) (T2) (T2) (E) (E) (A1) (T2) (T2) (T2)
                 (T2) (T2) (T2) (A1) (A1) (T2) (T2) (T2)
 The electronic state of the initial guess is 1-A1.
 Requested convergence on RMS density matrix=1.00D-08 within 128 cycles.
 Requested convergence on MAX density matrix=1.00D-06.
 Requested convergence on             energy=1.00D-06.
 No special actions if energy rises.
 Inv3:  Mode=1 IEnd=     5930508.
 Iteration    1 A*A^-1 deviation from unit magnitude is 3.77D-15 for    543.
 Iteration    1 A*A^-1 deviation from orthogonality  is 1.70D-15 for   1070    472.
 Iteration    1 A^-1*A deviation from unit magnitude is 3.55D-15 for    724.
 Iteration    1 A^-1*A deviation from orthogonality  is 1.67D-15 for   1197    718.
 Error on total polarization charges =  0.01427
 SCF Done:  E(RB972) =  -449.218161345     A.U. after    9 cycles
            NFock=  9  Conv=0.54D-08     -V/T= 2.0031
 DoSCS=F DFT=T ScalE2(SS,OS)=  1.000000  1.000000
 Range of M.O.s used for correlation:     1   233
 NBasis=   233 NAE=    25 NBE=    25 NFC=     0 NFV=     0
 NROrb=    233 NOA=    25 NOB=    25 NVA=   208 NVB=   208

 **** Warning!!: The largest alpha MO coefficient is  0.22617910D+02

 NEqPCM:  Using equilibrium solvation (IEInf=0, Eps=  78.3553, EpsInf=   1.7778)
          Differentiating once with respect to magnetic field using GIAOs.
          Electric field/nuclear overlap derivatives assumed to be zero.
   1 Symmetry operations used in ECPInt.
 ECPInt:  NShTT=    5565 NPrTT=   16270 LenC2=    5566 LenP2D=   16270.
 LDataN:  DoStor=T MaxTD1= 7 Len=  274
 FoFJK:  IHMeth= 1 ICntrl=    6127 DoSepK=F KAlg= 0 I1Cent=           0 FoldK=F
 IRaf=         1 NMat=       1 IRICut=       1 DoRegI=T DoRafI=F ISym2E= 0 IDoP0=0 IntGTp=1.
          There are     3 degrees of freedom in the 1st order CPHF.  IDoFFX=0 NUNeed=     3.
      3 vectors produced by pass  0 Test12= 1.73D-13 3.33D-08 XBig12= 3.24D+00 4.34D-01.
 AX will form     3 AO Fock derivatives at one time.
      3 vectors produced by pass  1 Test12= 1.73D-13 3.33D-08 XBig12= 2.89D-03 1.22D-02.
      3 vectors produced by pass  2 Test12= 1.73D-13 3.33D-08 XBig12= 2.42D-06 3.69D-04.
      3 vectors produced by pass  3 Test12= 1.73D-13 3.33D-08 XBig12= 2.03D-09 9.90D-06.
      3 vectors produced by pass  4 Test12= 1.73D-13 3.33D-08 XBig12= 3.67D-12 5.11D-07.
 InvSVY:  IOpt=1 It=  1 EMax= 4.44D-16
 Solved reduced A of dimension    15 with     3 vectors.
 Calculating GIAO nuclear magnetic shielding tensors.
 SCF GIAO Magnetic shielding tensor (ppm):
      1  Si   Isotropic =   337.8867   Anisotropy =     0.0000
   XX=   337.8867   YX=    -0.0000   ZX=    -0.0000
   XY=     0.0000   YY=   337.8867   ZY=    -0.0000
   XZ=    -0.0000   YZ=    -0.0000   ZZ=   337.8867
   Eigenvalues:   337.8867   337.8867   337.8867
      2  C    Isotropic =   188.2931   Anisotropy =     7.1835
   XX=   188.2931   YX=     2.3945   ZX=     2.3945
   XY=     2.3945   YY=   188.2931   ZY=     2.3945
   XZ=     2.3945   YZ=     2.3945   ZZ=   188.2931
   Eigenvalues:   185.8986   185.8986   193.0821
      3  H    Isotropic =    31.8294   Anisotropy =     9.2156
   XX=    32.6157   YX=     4.5068   ZX=    -1.9587
   XY=     4.5068   YY=    32.6157   ZY=    -1.9587
   XZ=    -1.6643   YZ=    -1.6643   ZZ=    30.2566
   Eigenvalues:    28.1089    29.4061    37.9731
      4  H    Isotropic =    31.8294   Anisotropy =     9.2156
   XX=    30.2566   YX=    -1.6643   ZX=    -1.6643
   XY=    -1.9587   YY=    32.6157   ZY=     4.5068
   XZ=    -1.9587   YZ=     4.5068   ZZ=    32.6157
   Eigenvalues:    28.1089    29.4061    37.9731
      5  H    Isotropic =    31.8294   Anisotropy =     9.2156
   XX=    32.6157   YX=    -1.9587   ZX=     4.5068
   XY=    -1.6643   YY=    30.2566   ZY=    -1.6643
   XZ=     4.5068   YZ=    -1.9587   ZZ=    32.6157
   Eigenvalues:    28.1089    29.4061    37.9731
      6  C    Isotropic =   188.2931   Anisotropy =     7.1835
   XX=   188.2931   YX=     2.3945   ZX=    -2.3945
   XY=     2.3945   YY=   188.2931   ZY=    -2.3945
   XZ=    -2.3945   YZ=    -2.3945   ZZ=   188.2931
   Eigenvalues:   185.8986   185.8986   193.0821
      7  H    Isotropic =    31.8294   Anisotropy =     9.2156
   XX=    32.6157   YX=    -1.9587   ZX=    -4.5068
   XY=    -1.6643   YY=    30.2566   ZY=     1.6643
   XZ=    -4.5068   YZ=     1.9587   ZZ=    32.6157
   Eigenvalues:    28.1089    29.4061    37.9731
      8  H    Isotropic =    31.8294   Anisotropy =     9.2156
   XX=    32.6157   YX=     4.5068   ZX=     1.9587
   XY=     4.5068   YY=    32.6157   ZY=     1.9587
   XZ=     1.6643   YZ=     1.6643   ZZ=    30.2566
   Eigenvalues:    28.1089    29.4061    37.9731
      9  H    Isotropic =    31.8294   Anisotropy =     9.2156
   XX=    30.2566   YX=    -1.6643   ZX=     1.6643
   XY=    -1.9587   YY=    32.6157   ZY=    -4.5068
   XZ=     1.9587   YZ=    -4.5068   ZZ=    32.6157
   Eigenvalues:    28.1089    29.4061    37.9731
     10  C    Isotropic =   188.2931   Anisotropy =     7.1835
   XX=   188.2931   YX=    -2.3945   ZX=     2.3945
   XY=    -2.3945   YY=   188.2931   ZY=    -2.3945
   XZ=     2.3945   YZ=    -2.3945   ZZ=   188.2931
   Eigenvalues:   185.8986   185.8986   193.0821
     11  H    Isotropic =    31.8294   Anisotropy =     9.2156
   XX=    30.2566   YX=     1.6643   ZX=    -1.6643
   XY=     1.9587   YY=    32.6157   ZY=    -4.5068
   XZ=    -1.9587   YZ=    -4.5068   ZZ=    32.6157
   Eigenvalues:    28.1089    29.4061    37.9731
     12  H    Isotropic =    31.8294   Anisotropy =     9.2156
   XX=    32.6157   YX=     1.9587   ZX=     4.5068
   XY=     1.6643   YY=    30.2566   ZY=     1.6643
   XZ=     4.5068   YZ=     1.9587   ZZ=    32.6157
   Eigenvalues:    28.1089    29.4061    37.9731
     13  H    Isotropic =    31.8294   Anisotropy =     9.2156
   XX=    32.6157   YX=    -4.5068   ZX=    -1.9587
   XY=    -4.5068   YY=    32.6157   ZY=     1.9587
   XZ=    -1.6643   YZ=     1.6643   ZZ=    30.2566
   Eigenvalues:    28.1089    29.4061    37.9731
     14  C    Isotropic =   188.2931   Anisotropy =     7.1835
   XX=   188.2931   YX=    -2.3945   ZX=    -2.3945
   XY=    -2.3945   YY=   188.2931   ZY=     2.3945
   XZ=    -2.3945   YZ=     2.3945   ZZ=   188.2931
   Eigenvalues:   185.8986   185.8986   193.0821
     15  H    Isotropic =    31.8294   Anisotropy =     9.2156
   XX=    30.2566   YX=     1.6643   ZX=     1.6643
   XY=     1.9587   YY=    32.6157   ZY=     4.5068
   XZ=     1.9587   YZ=     4.5068   ZZ=    32.6157
   Eigenvalues:    28.1089    29.4061    37.9731
     16  H    Isotropic =    31.8294   Anisotropy =     9.2156
   XX=    32.6157   YX=     1.9587   ZX=    -4.5068
   XY=     1.6643   YY=    30.2566   ZY=    -1.6643
   XZ=    -4.5068   YZ=    -1.9587   ZZ=    32.6157
   Eigenvalues:    28.1089    29.4061    37.9731
     17  H    Isotropic =    31.8294   Anisotropy =     9.2156
   XX=    32.6157   YX=    -4.5068   ZX=     1.9587
   XY=    -4.5068   YY=    32.6157   ZY=    -1.9587
   XZ=     1.6643   YZ=    -1.6643   ZZ=    30.2566
   Eigenvalues:    28.1089    29.4061    37.9731
 End of Minotr F.D. properties file   721 does not exist.
 End of Minotr F.D. properties file   722 does not exist.
 End of Minotr F.D. properties file   788 does not exist.

 **********************************************************************

            Population analysis using the SCF density.

 **********************************************************************

 Orbital symmetries:
       Occupied  (A1) (T2) (T2) (T2) (A1) (A1) (T2) (T2) (T2) (A1)
                 (T2) (T2) (T2) (A1) (T2) (T2) (T2) (E) (E) (T1)
                 (T1) (T1) (T2) (T2) (T2)
       Virtual   (A1) (T2) (T2) (T2) (T2) (T2) (T2) (E) (E) (A1)
                 (T2) (T2) (T2) (T1) (T1) (T1) (E) (E) (T2) (T2)
                 (T2) (T2) (T2) (T2) (A1) (E) (E) (T1) (T1) (T1)
                 (T2) (T2) (T2) (A1) (T2) (T2) (T2) (T2) (T2) (T2)
                 (T1) (T1) (T1) (A1) (E) (E) (A1) (T2) (T2) (T2)
                 (T2) (T2) (T2) (T1) (T1) (T1) (E) (E) (T2) (T2)
                 (T2) (T2) (T2) (T2) (T2) (T2) (T2) (T1) (T1) (T1)
                 (A1) (E) (E) (T2) (T2) (T2) (E) (E) (T1) (T1)
                 (T1) (A1) (T2) (T2) (T2) (T2) (T2) (T2) (A2) (A1)
                 (T1) (T1) (T1) (E) (E) (T1) (T1) (T1) (T2) (T2)
                 (T2) (T2) (T2) (T2) (T2) (T2) (T2) (T1) (T1) (T1)
                 (A1) (A1) (T2) (T2) (T2) (E) (E) (E) (E) (A1)
                 (T2) (T2) (T2) (T2) (T2) (T2) (T1) (T1) (T1) (E)
                 (E) (T2) (T2) (T2) (T1) (T1) (T1) (T2) (T2) (T2)
                 (T2) (T2) (T2) (E) (E) (T1) (T1) (T1) (T2) (T2)
                 (T2) (A1) (T1) (T1) (T1) (E) (E) (A1) (T1) (T1)
                 (T1) (T2) (T2) (T2) (T2) (T2) (T2) (A2) (T1) (T1)
                 (T1) (E) (E) (T2) (T2) (T2) (A1) (T2) (T2) (T2)
                 (E) (E) (T2) (T2) (T2) (T1) (T1) (T1) (T1) (T1)
                 (T1) (T2) (T2) (T2) (E) (E) (A1) (T2) (T2) (T2)
                 (T2) (T2) (T2) (A1) (A1) (T2) (T2) (T2)
 The electronic state is 1-A1.
 Alpha  occ. eigenvalues --  -66.07782 -10.15270 -10.15270 -10.15270 -10.15269
 Alpha  occ. eigenvalues --   -5.27012  -3.61592  -3.61592  -3.61592  -0.72188
 Alpha  occ. eigenvalues --   -0.67921  -0.67921  -0.67921  -0.45412  -0.41063
 Alpha  occ. eigenvalues --   -0.41063  -0.41063  -0.39558  -0.39558  -0.37773
 Alpha  occ. eigenvalues --   -0.37773  -0.37773  -0.29391  -0.29391  -0.29391
 Alpha virt. eigenvalues --    0.03739   0.07948   0.07948   0.07948   0.10027
 Alpha virt. eigenvalues --    0.10027   0.10027   0.13089   0.13089   0.14516
 Alpha virt. eigenvalues --    0.14857   0.14857   0.14857   0.16472   0.16472
 Alpha virt. eigenvalues --    0.16472   0.19713   0.19713   0.22889   0.22889
 Alpha virt. eigenvalues --    0.22889   0.27516   0.27516   0.27516   0.29692
 Alpha virt. eigenvalues --    0.37369   0.37369   0.37489   0.37489   0.37489
 Alpha virt. eigenvalues --    0.37750   0.37750   0.37750   0.37878   0.45589
 Alpha virt. eigenvalues --    0.45589   0.45589   0.46818   0.46818   0.46818
 Alpha virt. eigenvalues --    0.47842   0.47842   0.47842   0.50825   0.54252
 Alpha virt. eigenvalues --    0.54252   0.54684   0.62524   0.62524   0.62524
 Alpha virt. eigenvalues --    0.70701   0.70701   0.70701   0.72925   0.72925
 Alpha virt. eigenvalues --    0.72925   0.84507   0.84507   0.89671   0.89671
 Alpha virt. eigenvalues --    0.89671   0.98405   0.98405   0.98405   1.00958
 Alpha virt. eigenvalues --    1.00958   1.00958   1.01956   1.01956   1.01956
 Alpha virt. eigenvalues --    1.04185   1.08473   1.08473   1.21379   1.21379
 Alpha virt. eigenvalues --    1.21379   1.35807   1.35807   1.39894   1.39894
 Alpha virt. eigenvalues --    1.39894   1.44922   1.45048   1.45048   1.45048
 Alpha virt. eigenvalues --    1.53085   1.53085   1.53085   1.53890   1.54515
 Alpha virt. eigenvalues --    1.54622   1.54622   1.54622   1.56717   1.56717
 Alpha virt. eigenvalues --    1.63718   1.63718   1.63718   1.63748   1.63748
 Alpha virt. eigenvalues --    1.63748   1.71209   1.71209   1.71209   1.85960
 Alpha virt. eigenvalues --    1.85960   1.85960   1.97268   1.97268   1.97268
 Alpha virt. eigenvalues --    1.97959   2.04383   2.05479   2.05479   2.05479
 Alpha virt. eigenvalues --    2.13468   2.13468   2.17237   2.17237   2.17610
 Alpha virt. eigenvalues --    2.27559   2.27559   2.27559   2.37098   2.37098
 Alpha virt. eigenvalues --    2.37098   2.37537   2.37537   2.37537   2.39227
 Alpha virt. eigenvalues --    2.39227   2.47142   2.47142   2.47142   2.57931
 Alpha virt. eigenvalues --    2.57931   2.57931   2.59904   2.59904   2.59904
 Alpha virt. eigenvalues --    2.66597   2.66597   2.66597   2.68885   2.68885
 Alpha virt. eigenvalues --    2.75373   2.75373   2.75373   2.87252   2.87252
 Alpha virt. eigenvalues --    2.87252   2.92469   3.08147   3.08147   3.08147
 Alpha virt. eigenvalues --    3.15200   3.15200   3.18004   3.22637   3.22637
 Alpha virt. eigenvalues --    3.22637   3.24444   3.24444   3.24444   3.30205
 Alpha virt. eigenvalues --    3.30205   3.30205   3.32111   3.37587   3.37587
 Alpha virt. eigenvalues --    3.37587   3.39004   3.39004   3.48828   3.48828
 Alpha virt. eigenvalues --    3.48828   3.51581   3.58523   3.58523   3.58523
 Alpha virt. eigenvalues --    3.64676   3.64676   3.68171   3.68171   3.68171
 Alpha virt. eigenvalues --    3.68368   3.68368   3.68368   4.26018   4.26018
 Alpha virt. eigenvalues --    4.26018   4.29806   4.29806   4.29806   4.31028
 Alpha virt. eigenvalues --    4.31028   4.37015   4.40347   4.40347   4.40347
 Alpha virt. eigenvalues --    6.58834   6.58834   6.58834  12.04180  22.30596
 Alpha virt. eigenvalues --   22.35456  22.35456  22.35456
          Condensed to atoms (all electrons):
               1          2          3          4          5          6
     1  Si  12.211471   0.403411  -0.026321  -0.026321  -0.026321   0.403411
     2  C    0.403411   5.059399   0.384981   0.384981   0.384981  -0.042994
     3  H   -0.026321   0.384981   0.545213  -0.018804  -0.018804   0.003893
     4  H   -0.026321   0.384981  -0.018804   0.545213  -0.018804   0.000610
     5  H   -0.026321   0.384981  -0.018804  -0.018804   0.545213   0.000610
     6  C    0.403411  -0.042994   0.003893   0.000610   0.000610   5.059399
     7  H   -0.026321   0.000610  -0.000145   0.000914   0.000178   0.384981
     8  H   -0.026321   0.003893  -0.000127  -0.000145  -0.000145   0.384981
     9  H   -0.026321   0.000610  -0.000145   0.000178   0.000914   0.384981
    10  C    0.403411  -0.042994   0.000610   0.000610   0.003893  -0.042994
    11  H   -0.026321   0.000610   0.000914   0.000178  -0.000145   0.003893
    12  H   -0.026321   0.003893  -0.000145  -0.000145  -0.000127   0.000610
    13  H   -0.026321   0.000610   0.000178   0.000914  -0.000145   0.000610
    14  C    0.403411  -0.042994   0.000610   0.003893   0.000610  -0.042994
    15  H   -0.026321   0.003893  -0.000145  -0.000127  -0.000145   0.000610
    16  H   -0.026321   0.000610   0.000914  -0.000145   0.000178   0.003893
    17  H   -0.026321   0.000610   0.000178  -0.000145   0.000914   0.000610
               7          8          9         10         11         12
     1  Si  -0.026321  -0.026321  -0.026321   0.403411  -0.026321  -0.026321
     2  C    0.000610   0.003893   0.000610  -0.042994   0.000610   0.003893
     3  H   -0.000145  -0.000127  -0.000145   0.000610   0.000914  -0.000145
     4  H    0.000914  -0.000145   0.000178   0.000610   0.000178  -0.000145
     5  H    0.000178  -0.000145   0.000914   0.003893  -0.000145  -0.000127
     6  C    0.384981   0.384981   0.384981  -0.042994   0.003893   0.000610
     7  H    0.545213  -0.018804  -0.018804   0.000610  -0.000145   0.000178
     8  H   -0.018804   0.545213  -0.018804   0.000610  -0.000145   0.000914
     9  H   -0.018804  -0.018804   0.545213   0.003893  -0.000127  -0.000145
    10  C    0.000610   0.000610   0.003893   5.059399   0.384981   0.384981
    11  H   -0.000145  -0.000145  -0.000127   0.384981   0.545213  -0.018804
    12  H    0.000178   0.000914  -0.000145   0.384981  -0.018804   0.545213
    13  H    0.000914   0.000178  -0.000145   0.384981  -0.018804  -0.018804
    14  C    0.003893   0.000610   0.000610  -0.042994   0.000610   0.000610
    15  H   -0.000145   0.000914   0.000178   0.000610   0.000178   0.000914
    16  H   -0.000127  -0.000145  -0.000145   0.000610   0.000914   0.000178
    17  H   -0.000145   0.000178   0.000914   0.003893  -0.000145  -0.000145
              13         14         15         16         17
     1  Si  -0.026321   0.403411  -0.026321  -0.026321  -0.026321
     2  C    0.000610  -0.042994   0.003893   0.000610   0.000610
     3  H    0.000178   0.000610  -0.000145   0.000914   0.000178
     4  H    0.000914   0.003893  -0.000127  -0.000145  -0.000145
     5  H   -0.000145   0.000610  -0.000145   0.000178   0.000914
     6  C    0.000610  -0.042994   0.000610   0.003893   0.000610
     7  H    0.000914   0.003893  -0.000145  -0.000127  -0.000145
     8  H    0.000178   0.000610   0.000914  -0.000145   0.000178
     9  H   -0.000145   0.000610   0.000178  -0.000145   0.000914
    10  C    0.384981  -0.042994   0.000610   0.000610   0.003893
    11  H   -0.018804   0.000610   0.000178   0.000914  -0.000145
    12  H   -0.018804   0.000610   0.000914   0.000178  -0.000145
    13  H    0.545213   0.003893  -0.000145  -0.000145  -0.000127
    14  C    0.003893   5.059399   0.384981   0.384981   0.384981
    15  H   -0.000145   0.384981   0.545213  -0.018804  -0.018804
    16  H   -0.000145   0.384981  -0.018804   0.545213  -0.018804
    17  H   -0.000127   0.384981  -0.018804  -0.018804   0.545213
 Mulliken charges:
               1
     1  Si   0.490740
     2  C   -0.504111
     3  H    0.127142
     4  H    0.127142
     5  H    0.127142
     6  C   -0.504111
     7  H    0.127142
     8  H    0.127142
     9  H    0.127142
    10  C   -0.504111
    11  H    0.127142
    12  H    0.127142
    13  H    0.127142
    14  C   -0.504111
    15  H    0.127142
    16  H    0.127142
    17  H    0.127142
 Sum of Mulliken charges =  -0.00000
 Mulliken charges with hydrogens summed into heavy atoms:
               1
     1  Si   0.490740
     2  C   -0.122685
     6  C   -0.122685
    10  C   -0.122685
    14  C   -0.122685
 Electronic spatial extent (au):  <R**2>=            666.4386
 Charge=             -0.0000 electrons
 Dipole moment (field-independent basis, Debye):
    X=              0.0000    Y=              0.0000    Z=              0.0000  Tot=              0.0000
 Quadrupole moment (field-independent basis, Debye-Ang):
   XX=            -42.2760   YY=            -42.2760   ZZ=            -42.2760
   XY=             -0.0000   XZ=             -0.0000   YZ=              0.0000
 Traceless Quadrupole moment (field-independent basis, Debye-Ang):
   XX=             -0.0000   YY=             -0.0000   ZZ=              0.0000
   XY=             -0.0000   XZ=             -0.0000   YZ=              0.0000
 Octapole moment (field-independent basis, Debye-Ang**2):
  XXX=             -0.0000  YYY=              0.0000  ZZZ=              0.0000  XYY=             -0.0000
  XXY=             -0.0000  XXZ=              0.0000  XZZ=              0.0000  YZZ=              0.0000
  YYZ=              0.0000  XYZ=             -6.3949
 Hexadecapole moment (field-independent basis, Debye-Ang**3):
 XXXX=           -323.3298 YYYY=           -323.3298 ZZZZ=           -323.3298 XXXY=              0.0000
 XXXZ=             -0.0000 YYYX=             -0.0000 YYYZ=              0.0000 ZZZX=             -0.0000
 ZZZY=              0.0000 XXYY=           -108.7913 XXZZ=           -108.7913 YYZZ=           -108.7913
 XXYZ=              0.0000 YYXZ=             -0.0000 ZZXY=             -0.0000
 N-N= 2.453760763449D+02 E-N=-1.550097169055D+03  KE= 4.478487802047D+02
 Symmetry A    KE= 2.515034620477D+02
 Symmetry B1   KE= 6.544843938568D+01
 Symmetry B2   KE= 6.544843938568D+01
 Symmetry B3   KE= 6.544843938568D+01
 1\1\GINC-2696V3\SP\RB972\def2TZVP\C4H12Si1\ROOT\13-Aug-2020\0\\# B972/
 def2TZVP NMR scrf\\Title Card Required\\0,1\Si,0,0.,0.,0.\C,0,1.088689
 ,1.088689,1.088689\H,0,1.733064,1.733064,0.482626\H,0,0.482626,1.73306
 4,1.733064\H,0,1.733064,0.482626,1.733064\C,0,-1.088689,-1.088689,1.08
 8689\H,0,-1.733064,-0.482626,1.733064\H,0,-1.733064,-1.733064,0.482626
 \H,0,-0.482626,-1.733064,1.733064\C,0,-1.088689,1.088689,-1.088689\H,0
 ,-0.482626,1.733064,-1.733064\H,0,-1.733064,0.482626,-1.733064\H,0,-1.
 733064,1.733064,-0.482626\C,0,1.088689,-1.088689,-1.088689\H,0,0.48262
 6,-1.733064,-1.733064\H,0,1.733064,-0.482626,-1.733064\H,0,1.733064,-1
 .733064,-0.482626\\Version=ES64L-G16RevA.03\State=1-A1\HF=-449.2181613
 \RMSD=5.435e-09\Dipole=0.,0.,0.\Quadrupole=0.,0.,0.,0.,0.,0.\PG=TD [O(
 Si1),4C3(C1),6SGD(H2)]\\@


 WOE UNTO THEM THAT CALL EVIL GOOD, AND GOOD EVIL      
 Job cpu time:       0 days  0 hours  9 minutes 13.4 seconds.
 Elapsed time:       0 days  0 hours  0 minutes 18.6 seconds.
 File lengths (MBytes):  RWF=     70 Int=      0 D2E=      0 Chk=      6 Scr=      1
 Normal termination of Gaussian 16 at Thu Aug 13 08:51:37 2020.
