 Entering Gaussian System, Link 0=g16
 Initial command:
 /sob/g16/l1.exe "/sob2/gauscr/Gau-11965.inp" -scrdir="/sob2/gauscr/"
 Default is to use a total of  36 processors:
                               36 via shared-memory
                                1 via Linda
 Entering Link 1 = /sob/g16/l1.exe PID=     11966.
  
 Copyright (c) 1988,1990,1992,1993,1995,1998,2003,2009,2016,
            Gaussian, Inc.  All Rights Reserved.
  
 This is part of the Gaussian(R) 16 program.  It is based on
 the Gaussian(R) 09 system (copyright 2009, Gaussian, Inc.),
 the Gaussian(R) 03 system (copyright 2003, Gaussian, Inc.),
 the Gaussian(R) 98 system (copyright 1998, Gaussian, Inc.),
 the Gaussian(R) 94 system (copyright 1995, Gaussian, Inc.),
 the Gaussian 92(TM) system (copyright 1992, Gaussian, Inc.),
 the Gaussian 90(TM) system (copyright 1990, Gaussian, Inc.),
 the Gaussian 88(TM) system (copyright 1988, Gaussian, Inc.),
 the Gaussian 86(TM) system (copyright 1986, Carnegie Mellon
 University), and the Gaussian 82(TM) system (copyright 1983,
 Carnegie Mellon University). Gaussian is a federally registered
 trademark of Gaussian, Inc.
  
 This software contains proprietary and confidential information,
 including trade secrets, belonging to Gaussian, Inc.
  
 This software is provided under written license and may be
 used, copied, transmitted, or stored only in accord with that
 written license.
  
 The following legend is applicable only to US Government
 contracts under FAR:
  
                    RESTRICTED RIGHTS LEGEND
  
 Use, reproduction and disclosure by the US Government is
 subject to restrictions as set forth in subparagraphs (a)
 and (c) of the Commercial Computer Software - Restricted
 Rights clause in FAR 52.227-19.
  
 Gaussian, Inc.
 340 Quinnipiac St., Bldg. 40, Wallingford CT 06492
  
  
 ---------------------------------------------------------------
 Warning -- This program may not be used in any manner that
 competes with the business of Gaussian, Inc. or will provide
 assistance to any competitor of Gaussian, Inc.  The licensee
 of this program is prohibited from giving any competitor of
 Gaussian, Inc. access to this program.  By using this program,
 the user acknowledges that Gaussian, Inc. is engaged in the
 business of creating and licensing software in the field of
 computational chemistry and represents and warrants to the
 licensee that it is not a competitor of Gaussian, Inc. and that
 it will not use this program in any manner prohibited above.
 ---------------------------------------------------------------
  

 Cite this work as:
 Gaussian 16, Revision A.03,
 M. J. Frisch, G. W. Trucks, H. B. Schlegel, G. E. Scuseria, 
 M. A. Robb, J. R. Cheeseman, G. Scalmani, V. Barone, 
 G. A. Petersson, H. Nakatsuji, X. Li, M. Caricato, A. V. Marenich, 
 J. Bloino, B. G. Janesko, R. Gomperts, B. Mennucci, H. P. Hratchian, 
 J. V. Ortiz, A. F. Izmaylov, J. L. Sonnenberg, D. Williams-Young, 
 F. Ding, F. Lipparini, F. Egidi, J. Goings, B. Peng, A. Petrone, 
 T. Henderson, D. Ranasinghe, V. G. Zakrzewski, J. Gao, N. Rega, 
 G. Zheng, W. Liang, M. Hada, M. Ehara, K. Toyota, R. Fukuda, 
 J. Hasegawa, M. Ishida, T. Nakajima, Y. Honda, O. Kitao, H. Nakai, 
 T. Vreven, K. Throssell, J. A. Montgomery, Jr., J. E. Peralta, 
 F. Ogliaro, M. J. Bearpark, J. J. Heyd, E. N. Brothers, K. N. Kudin, 
 V. N. Staroverov, T. A. Keith, R. Kobayashi, J. Normand, 
 K. Raghavachari, A. P. Rendell, J. C. Burant, S. S. Iyengar, 
 J. Tomasi, M. Cossi, J. M. Millam, M. Klene, C. Adamo, R. Cammi, 
 J. W. Ochterski, R. L. Martin, K. Morokuma, O. Farkas, 
 J. B. Foresman, and D. J. Fox, Gaussian, Inc., Wallingford CT, 2016.
 
 ******************************************
 Gaussian 16:  ES64L-G16RevA.03 25-Dec-2016
                29-Oct-2018 
 ******************************************
 %chk=NH2_C8_NO2.chk
 ---------------------------------------------
 # CAM-B3LYP/6-31G* IOp(9/40=4) TD(nstates=10)
 ---------------------------------------------
 1/38=1,172=1/1;
 2/12=2,17=6,18=5,40=1/2;
 3/5=1,6=6,7=1,11=9,25=1,30=1,74=-40/1,2,3,8;
 4//1;
 5/5=2,38=5/2;
 8/6=1,10=2,108=10/1;
 9/40=4,41=10,42=1,70=2/14;
 6/7=2,8=2,9=2,10=2/1;
 99/5=1,9=1/99;
 --------------------
 b3lyp/6-31g(d) opted
 --------------------
 Symbolic Z-matrix:
 Charge =  0 Multiplicity = 1
 N                     6.50405   0.05787  -0.05706 
 C                     5.20453   0.48624   0.00416 
 C                     4.09716  -0.30455   0.0032 
 C                     2.77196   0.23103  -0.0027 
 C                     1.61823  -0.49945  -0.00086 
 C                     0.31744   0.08969  -0.00186 
 C                    -0.86262  -0.59829  -0.00054 
 C                    -2.13453   0.0535   -0.00099 
 C                    -3.32496  -0.58721   0.00096 
 N                    -4.56278   0.1412    0.00106 
 O                    -5.59838  -0.53856   0.00299 
 O                    -4.54048   1.3793   -0.00061 
 H                     7.2317    0.68744   0.24826 
 H                     6.69516  -0.91996   0.1176 
 H                     5.09475   1.56887   0.00389 
 H                     4.2145   -1.38819   0.00353 
 H                     2.68547   1.31932  -0.00668 
 H                     1.67994  -1.58773   0.00093 
 H                     0.27258   1.18014  -0.00383 
 H                    -0.84346  -1.68754   0.00115 
 H                    -2.1599    1.14107  -0.00275 
 H                    -3.47203  -1.65855   0.00268 
 
                          Input orientation:                          
 ---------------------------------------------------------------------
 Center     Atomic      Atomic             Coordinates (Angstroms)
 Number     Number       Type             X           Y           Z
 ---------------------------------------------------------------------
      1          7           0        6.504051    0.057867   -0.057062
      2          6           0        5.204529    0.486239    0.004161
      3          6           0        4.097158   -0.304553    0.003196
      4          6           0        2.771955    0.231029   -0.002702
      5          6           0        1.618228   -0.499451   -0.000863
      6          6           0        0.317437    0.089687   -0.001855
      7          6           0       -0.862617   -0.598288   -0.000544
      8          6           0       -2.134527    0.053497   -0.000987
      9          6           0       -3.324956   -0.587207    0.000964
     10          7           0       -4.562783    0.141204    0.001055
     11          8           0       -5.598377   -0.538558    0.002994
     12          8           0       -4.540476    1.379297   -0.000613
     13          1           0        7.231698    0.687443    0.248256
     14          1           0        6.695157   -0.919959    0.117597
     15          1           0        5.094750    1.568867    0.003894
     16          1           0        4.214496   -1.388185    0.003525
     17          1           0        2.685470    1.319321   -0.006683
     18          1           0        1.679941   -1.587727    0.000933
     19          1           0        0.272577    1.180141   -0.003827
     20          1           0       -0.843455   -1.687540    0.001153
     21          1           0       -2.159898    1.141066   -0.002745
     22          1           0       -3.472031   -1.658554    0.002682
 ---------------------------------------------------------------------
                    Distance matrix (angstroms):
                    1          2          3          4          5
     1  N    0.000000
     2  C    1.369675   0.000000
     3  C    2.434772   1.360744   0.000000
     4  C    3.736506   2.445934   1.429352   0.000000
     5  C    4.917828   3.719296   2.486583   1.365537   0.000000
     6  C    6.186942   4.903158   3.800229   2.458584   1.427985
     7  C    7.396048   6.163317   4.968467   3.727987   2.482813
     8  C    8.638761   7.351805   6.241964   4.909693   3.793273
     9  C    9.850323   8.596767   7.427494   6.151573   4.943963
    10  N   11.067300   9.773405   8.671406   7.335289   6.214124
    11  O   12.117264  10.851405   9.698358   8.405638   7.216712
    12  O   11.123441   9.785842   8.800232   7.402038   6.438892
    13  H    1.009483   2.051702   3.296885   4.490056   5.742980
    14  H    1.011519   2.052372   2.672342   4.090325   5.095691
    15  H    2.067115   1.088180   2.122473   2.680528   4.045265
    16  H    2.708653   2.119819   1.089966   2.168598   2.744171
    17  H    4.021861   2.653262   2.151727   1.091730   2.108784
    18  H    5.097390   4.089507   2.736691   2.121410   1.090026
    19  H    6.331951   4.980534   4.102656   2.673519   2.152165
    20  H    7.552197   6.426775   5.130528   4.092934   2.733394
    21  H    8.731568   7.393486   6.421884   5.015111   4.118924
    22  H   10.122840   8.937720   7.689339   6.523643   5.220562
                    6          7          8          9         10
     6  C    0.000000
     7  C    1.365957   0.000000
     8  C    2.452231   1.429188   0.000000
     9  C    3.704756   2.462364   1.351897   0.000000
    10  N    4.880493   3.773338   2.429840   1.436245   0.000000
    11  O    5.949081   4.736138   3.514086   2.273942   1.238764
    12  O    5.026173   4.175822   2.747060   2.311845   1.238295
    13  H    6.944557   8.199570   9.390963  10.636204  11.809711
    14  H    6.458248   7.565539   8.883974  10.026315  11.308442
    15  H    5.001072   6.339306   7.386394   8.691382   9.762488
    16  H    4.167878   5.138193   6.510650   7.581880   8.909527
    17  H    2.668258   4.033136   4.983444   6.305563   7.343377
    18  H    2.161051   2.728295   4.152564   5.103923   6.477716
    19  H    1.091378   2.109854   2.657722   4.008215   4.945717
    20  H    2.122785   1.089422   2.167506   2.714513   4.144600
    21  H    2.691206   2.169861   1.087866   2.084299   2.602613
    22  H    4.173300   2.816596   2.172567   1.081397   2.104488
                   11         12         13         14         15
    11  O    0.000000
    12  O    2.190282   0.000000
    13  H   12.890852  11.795112   0.000000
    14  H   12.299983  11.469089   1.699614   0.000000
    15  H   10.898817   9.637092   2.324472   2.961163   0.000000
    16  H    9.849586   9.181966   3.670372   2.527039   3.085288
    17  H    8.489637   7.226197   4.597005   4.594280   2.422192
    18  H    7.353548   6.891794   6.004962   5.060822   4.650270
    19  H    6.117358   4.817173   6.981093   6.758306   4.837822
    20  H    4.891773   4.803484   8.420790   7.578483   6.772479
    21  H    3.826788   2.392469   9.405894   9.092541   7.267254
    22  H    2.403277   3.220268  10.960558  10.194628   9.154561
                   16         17         18         19         20
    16  H    0.000000
    17  H    3.109439   0.000000
    18  H    2.542399   3.076049   0.000000
    19  H    4.704793   2.416905   3.105123   0.000000
    20  H    5.066802   4.636225   2.525369   3.077198   0.000000
    21  H    6.857846   4.848647   4.710699   2.432789   3.119944
    22  H    7.691281   6.839784   5.152459   4.698970   2.628736
                   21         22
    21  H    0.000000
    22  H    3.091859   0.000000
 Stoichiometry    C8H10N2O2
 Framework group  C1[X(C8H10N2O2)]
 Deg. of freedom    60
 Full point group                 C1      NOp   1
 Largest Abelian subgroup         C1      NOp   1
 Largest concise Abelian subgroup C1      NOp   1
                         Standard orientation:                         
 ---------------------------------------------------------------------
 Center     Atomic      Atomic             Coordinates (Angstroms)
 Number     Number       Type             X           Y           Z
 ---------------------------------------------------------------------
      1          7           0        6.504051    0.057867   -0.057062
      2          6           0        5.204529    0.486239    0.004161
      3          6           0        4.097158   -0.304553    0.003196
      4          6           0        2.771955    0.231029   -0.002702
      5          6           0        1.618228   -0.499451   -0.000863
      6          6           0        0.317437    0.089687   -0.001855
      7          6           0       -0.862617   -0.598288   -0.000544
      8          6           0       -2.134527    0.053497   -0.000987
      9          6           0       -3.324956   -0.587207    0.000964
     10          7           0       -4.562783    0.141204    0.001055
     11          8           0       -5.598377   -0.538558    0.002994
     12          8           0       -4.540476    1.379297   -0.000613
     13          1           0        7.231698    0.687443    0.248256
     14          1           0        6.695157   -0.919959    0.117597
     15          1           0        5.094750    1.568867    0.003894
     16          1           0        4.214496   -1.388185    0.003525
     17          1           0        2.685470    1.319321   -0.006683
     18          1           0        1.679941   -1.587727    0.000933
     19          1           0        0.272577    1.180141   -0.003827
     20          1           0       -0.843455   -1.687540    0.001153
     21          1           0       -2.159898    1.141066   -0.002745
     22          1           0       -3.472031   -1.658554    0.002682
 ---------------------------------------------------------------------
 Rotational constants (GHZ):           7.2155719           0.1851418           0.1805255
 Standard basis: 6-31G(d) (6D, 7F)
 There are   200 symmetry adapted cartesian basis functions of A   symmetry.
 There are   200 symmetry adapted basis functions of A   symmetry.
   200 basis functions,   376 primitive gaussians,   200 cartesian basis functions
    44 alpha electrons       44 beta electrons
       nuclear repulsion energy       577.3265668935 Hartrees.
 NAtoms=   22 NActive=   22 NUniq=   22 SFac= 1.00D+00 NAtFMM=   60 NAOKFM=F Big=F
 Integral buffers will be    131072 words long.
 Raffenetti 1 integral format.
 Two-electron integral symmetry is turned on.
 One-electron integrals computed using PRISM.
 NBasis=   200 RedAO= T EigKep=  1.38D-03  NBF=   200
 NBsUse=   200 1.00D-06 EigRej= -1.00D+00 NBFU=   200
 ExpMin= 1.61D-01 ExpMax= 5.48D+03 ExpMxC= 8.25D+02 IAcc=3 IRadAn=         5 AccDes= 0.00D+00
 Harris functional with IExCor=20419 and IRadAn=       5 diagonalized for initial guess.
 HarFok:  IExCor=20419 AccDes= 0.00D+00 IRadAn=         5 IDoV= 1 UseB2=F ITyADJ=14
 ICtDFT=  3500011 ScaDFX=  1.000000  1.000000  1.000000  1.000000
 FoFCou: FMM=F IPFlag=           0 FMFlag=      100000 FMFlg1=           0
         NFxFlg=           0 DoJE=T BraDBF=F KetDBF=T FulRan=T
         wScrn=  0.000000 ICntrl=       500 IOpCl=  0 I1Cent=   200000004 NGrid=           0
         NMat0=    1 NMatS0=      1 NMatT0=    0 NMatD0=    1 NMtDS0=    0 NMtDT0=    0
 Petite list used in FoFCou.
 Requested convergence on RMS density matrix=1.00D-08 within 128 cycles.
 Requested convergence on MAX density matrix=1.00D-06.
 Requested convergence on             energy=1.00D-06.
 No special actions if energy rises.
 Integral accuracy reduced to 1.0D-05 until final iterations.
 Initial convergence to 1.0D-05 achieved.  Increase integral accuracy.
 SCF Done:  E(RCAM-B3LYP) =  -570.377191716     A.U. after   16 cycles
            NFock= 16  Conv=0.35D-08     -V/T= 2.0092
 DoSCS=F DFT=T ScalE2(SS,OS)=  1.000000  1.000000
 ExpMin= 1.61D-01 ExpMax= 5.48D+03 ExpMxC= 8.25D+02 IAcc=3 IRadAn=         5 AccDes= 0.00D+00
 HarFok:  IExCor=  205 AccDes= 0.00D+00 IRadAn=         5 IDoV=-2 UseB2=F ITyADJ=14
 ICtDFT= 12500011 ScaDFX=  1.000000  1.000000  1.000000  1.000000
 Range of M.O.s used for correlation:    13   200
 NBasis=   200 NAE=    44 NBE=    44 NFC=    12 NFV=     0
 NROrb=    188 NOA=    32 NOB=    32 NVA=   156 NVB=   156
 Keep R1, R2, and R3 ints in memory in canonical form, NReq=1488743310.
 Orbital symmetries:
       Occupied  (A) (A) (A) (A) (A) (A) (A) (A) (A) (A) (A) (A)
                 (A) (A) (A) (A) (A) (A) (A) (A) (A) (A) (A) (A)
                 (A) (A) (A) (A) (A) (A) (A) (A) (A) (A) (A) (A)
                 (A) (A) (A) (A) (A) (A) (A) (A)
       Virtual   (A) (A) (A) (A) (A) (A) (A) (A) (A) (A) (A) (A)
                 (A) (A) (A) (A) (A) (A) (A) (A) (A) (A) (A) (A)
                 (A) (A) (A) (A) (A) (A) (A) (A) (A) (A) (A) (A)
                 (A) (A) (A) (A) (A) (A) (A) (A) (A) (A) (A) (A)
                 (A) (A) (A) (A) (A) (A) (A) (A) (A) (A) (A) (A)
                 (A) (A) (A) (A) (A) (A) (A) (A) (A) (A) (A) (A)
                 (A) (A) (A) (A) (A) (A) (A) (A) (A) (A) (A) (A)
                 (A) (A) (A) (A) (A) (A) (A) (A) (A) (A) (A) (A)
                 (A) (A) (A) (A) (A) (A) (A) (A) (A) (A) (A) (A)
                 (A) (A) (A) (A) (A) (A) (A) (A) (A) (A) (A) (A)
                 (A) (A) (A) (A) (A) (A) (A) (A) (A) (A) (A) (A)
                 (A) (A) (A) (A) (A) (A) (A) (A) (A) (A) (A) (A)
                 (A) (A) (A) (A) (A) (A) (A) (A) (A) (A) (A) (A)
    40 initial guesses have been made.
 Convergence on wavefunction:    0.001000000000000
 Iteration     1 Dimension    40 NMult     0 NNew     40
 CISAX will form    40 AO SS matrices at one time.
 New state      2 was old state      4
 New state      3 was old state      6
 New state      4 was old state      3
 New state      5 was old state      2
 New state      6 was old state      5
 New state      7 was old state     10
 New state      8 was old state     11
 New state      9 was old state     12
 New state     10 was old state      9
 Iteration     2 Dimension    60 NMult    40 NNew     20
 New state      4 was old state      5
 New state      5 was old state      4
 New state      8 was old state      9
 New state      9 was old state      8
 Iteration     3 Dimension    80 NMult    60 NNew     20
 New state      9 was old state     10
 New state     10 was old state      9
 Iteration     4 Dimension   100 NMult    80 NNew     20
 New state      8 was old state      9
 New state      9 was old state      8
 Iteration     5 Dimension   114 NMult   100 NNew     14
 Iteration     6 Dimension   120 NMult   114 NNew      6
 Iteration     7 Dimension   122 NMult   120 NNew      2
 ***********************************************************************
 Excited states from <AA,BB:AA,BB> singles matrix:
 ***********************************************************************
 
 Ground to excited state transition densities written to RWF  633
 Ground to excited state transition electric dipole moments (Au):
       state          X           Y           Z        Dip. S.      Osc.
         1        -4.3881     -0.2570      0.0075     19.3211      1.6097
         2        -0.0003      0.0000      0.0075      0.0001      0.0000
         3        -0.0007     -0.0001      0.0265      0.0007      0.0001
         4        -1.0888     -0.5673      0.0081      1.5075      0.1881
         5        -0.8042     -0.1828     -0.0076      0.6802      0.0866
         6        -0.4213     -0.4825     -0.0020      0.4104      0.0591
         7         0.1375     -0.0338      0.0566      0.0232      0.0037
         8         0.3551     -0.0722     -0.0479      0.1336      0.0215
         9        -0.0475      0.0315     -0.0432      0.0051      0.0008
        10         0.0049      0.0010      0.0067      0.0001      0.0000
 Ground to excited state transition velocity dipole moments (Au):
       state          X           Y           Z        Dip. S.      Osc.
         1         0.5263      0.0329     -0.0002      0.2781      1.4836
         2         0.0000     -0.0000     -0.0044      0.0000      0.0001
         3         0.0001      0.0000     -0.0013      0.0000      0.0000
         4         0.1926      0.1021      0.0005      0.0475      0.1694
         5         0.1518      0.0351      0.0015      0.0243      0.0847
         6         0.0774      0.0992      0.0002      0.0158      0.0489
         7        -0.0357      0.0119     -0.0433      0.0033      0.0093
         8        -0.0840      0.0157      0.0238      0.0079      0.0217
         9         0.0044     -0.0077      0.0281      0.0009      0.0024
        10        -0.0013     -0.0004     -0.0015      0.0000      0.0000
 Ground to excited state transition magnetic dipole moments (Au):
       state          X           Y           Z
         1        -0.0055      0.0015      0.3815
         2         0.5732     -0.2937     -0.0003
         3        -0.5191     -0.9017      0.0020
         4        -0.0135     -0.0061     -0.0767
         5         0.0032     -0.0266      0.4194
         6         0.0025     -0.0078     -0.8389
         7         0.0529      0.7412     -0.2774
         8         0.0007     -0.4062     -0.0619
         9        -0.0123     -0.4931     -0.4858
        10        -0.0931      0.1340     -0.0149
 Ground to excited state transition velocity quadrupole moments (Au):
       state          XX          YY          ZZ          XY          XZ          YZ
         1         1.1156     -0.0623      0.0091      0.1421      0.0007      0.0006
         2         0.0005      0.0001     -0.0001      0.0000      0.0401      0.0302
         3        -0.0011     -0.0001      0.0000      0.0002      0.0458     -0.0264
         4         5.7637     -0.0158     -0.0440      0.0628      0.0076      0.0004
         5        -2.2286     -0.0844      0.0307      0.1185      0.0230      0.0006
         6        -2.0561      0.2442      0.0096     -1.0074      0.0074      0.0002
         7        -2.4092      0.0067     -0.0272     -0.4290     -0.5877     -0.0074
         8        -0.8436      0.0661     -0.0123     -0.1342      0.3206      0.0059
         9        -2.6932     -0.0059      0.0176     -0.6043      0.3871      0.0095
        10        -0.0509      0.0007      0.0000     -0.0168      0.0090     -0.0087
 <0|del|b> * <b|rxdel|0> + <0|del|b> * <b|delr+rdel|0>
 Rotatory Strengths (R) in cgs (10**-40 erg-esu-cm/Gauss)
       state          XX          YY          ZZ    R(velocity)    E-M Angle
         1        -0.1987     -7.3522     -8.8363     -5.4624       90.82
         2         0.0094      0.0363      0.0332      0.0263       90.00
         3        -0.0522     -0.1438     -0.1665     -0.1208       90.00
         4        -2.6578     -4.8923     -4.7658     -4.1053      101.03
         5        -1.7484      1.8991      0.4857      0.2121       89.85
         6        -2.9991      0.3912      0.2226     -0.7951       90.40
         7        69.1214    -12.2122     -0.4939     18.8051       65.43
         8       -23.5489      1.7068     -1.3263     -7.7228      102.52
         9       -34.5933      4.8165      1.0483     -9.5762      119.02
        10         0.0047      0.1831      0.0820      0.0899       90.00
 1/2[<0|r|b>*<b|rxdel|0> + (<0|rxdel|b>*<b|r|0>)*]
 Rotatory Strengths (R) in cgs (10**-40 erg-esu-cm/Gauss)
       state          XX          YY          ZZ     R(length)
         1       -16.9532      0.2738     -2.0183     -6.2326
         2         0.1248      0.0066      0.0018      0.0444
         3        -0.2706     -0.0662     -0.0374     -0.1248
         4       -10.3658     -2.4586      0.4388     -4.1285
         5         1.8172     -3.4327      2.2559      0.2134
         6         0.7420     -2.6623     -1.1798     -1.0334
         7        -5.1451     17.7324     11.1074      7.8982
         8        -0.1769    -20.7433     -2.0959     -7.6721
         9        -0.4141     10.9741    -14.8349     -1.4250
        10         0.3201     -0.0901      0.0709      0.1003
  1/2[<0|del|b>*<b|r|0> + (<0|r|b>*<b|del|0>)*] (Au)
       state          X           Y           Z        Dip. S.   Osc.(frdel)
         1        -2.3095     -0.0085     -0.0000      2.3180      1.5453
         2        -0.0000     -0.0000     -0.0000      0.0000      0.0000
         3        -0.0000     -0.0000     -0.0000      0.0000      0.0000
         4        -0.2098     -0.0579      0.0000      0.2677      0.1785
         5        -0.1220     -0.0064     -0.0000      0.1285      0.0856
         6        -0.0326     -0.0479     -0.0000      0.0805      0.0536
         7        -0.0049     -0.0004     -0.0025      0.0078      0.0052
         8        -0.0298     -0.0011     -0.0011      0.0321      0.0214
         9        -0.0002     -0.0002     -0.0012      0.0017      0.0011
        10        -0.0000     -0.0000     -0.0000      0.0000      0.0000

 Excitation energies and oscillator strengths:
 
 Excited State   1:      Singlet-A      3.4005 eV  364.60 nm  f=1.6097  <S**2>=0.000
      13 -> 54         0.00014
      13 -> 55         0.00018
      13 -> 56        -0.00018
      13 -> 57        -0.00046
      13 -> 59        -0.00054
      13 -> 60         0.00010
      13 -> 61         0.00013
      13 -> 62        -0.00167
      13 -> 63        -0.00105
      13 -> 64         0.00028
      13 -> 65        -0.00030
      13 -> 66         0.00032
      13 -> 67        -0.00021
      13 -> 68         0.00013
      13 -> 69         0.00015
      13 -> 70        -0.00028
      13 -> 73         0.00026
      13 -> 76        -0.00057
      13 -> 77        -0.00018
      13 -> 79         0.00021
      13 -> 81        -0.00010
      13 -> 83        -0.00019
      13 -> 90        -0.00045
      13 -> 95         0.00014
      13 -> 97         0.00013
      13 ->113         0.00018
      13 ->115         0.00018
      13 ->116         0.00019
      13 ->117         0.00010
      13 ->121        -0.00038
      13 ->123        -0.00010
      13 ->129        -0.00012
      13 ->131         0.00019
      13 ->133         0.00035
      13 ->134         0.00038
      13 ->137        -0.00024
      13 ->140         0.00015
      13 ->150        -0.00011
      13 ->153        -0.00010
      13 ->175         0.00011
      13 ->189         0.00010
      13 ->191        -0.00013
      14 -> 51        -0.00012
      14 -> 53         0.00012
      14 -> 56        -0.00020
      14 -> 57        -0.00013
      14 -> 58        -0.00016
      14 -> 59        -0.00025
      14 -> 60         0.00047
      14 -> 62         0.00035
      14 -> 63        -0.00040
      14 -> 64         0.00032
      14 -> 65         0.00060
      14 -> 66         0.00123
      14 -> 67         0.00020
      14 -> 69         0.00011
      14 -> 70        -0.00090
      14 -> 71         0.00016
      14 -> 73         0.00015
      14 -> 79        -0.00014
      14 -> 80         0.00012
      14 -> 81         0.00034
      14 -> 83        -0.00014
      14 -> 84        -0.00039
      14 -> 85        -0.00019
      14 -> 86        -0.00037
      14 -> 90        -0.00028
      14 -> 93        -0.00078
      14 -> 95        -0.00026
      14 -> 96         0.00014
      14 -> 97        -0.00065
      14 -> 98        -0.00019
      14 -> 99        -0.00012
      14 ->100         0.00024
      14 ->101         0.00017
      14 ->103         0.00037
      14 ->104         0.00035
      14 ->109         0.00017
      14 ->113         0.00014
      14 ->114         0.00017
      14 ->116        -0.00014
      14 ->119         0.00011
      14 ->120        -0.00019
      14 ->121        -0.00023
      14 ->123        -0.00011
      14 ->131        -0.00011
      14 ->133        -0.00016
      14 ->134        -0.00021
      14 ->137        -0.00083
      14 ->142         0.00018
      14 ->143        -0.00013
      14 ->146         0.00022
      14 ->156        -0.00012
      14 ->159        -0.00015
      14 ->165        -0.00010
      14 ->175        -0.00016
      14 ->179        -0.00011
      14 ->180        -0.00024
      14 ->181        -0.00016
      14 ->192         0.00013
      15 -> 45         0.00054
      15 -> 46         0.00067
      15 -> 47        -0.00121
      15 -> 48        -0.00427
      15 -> 49        -0.00012
      15 -> 50        -0.00012
      15 -> 53         0.00035
      15 -> 55        -0.00013
      15 -> 57        -0.00050
      15 -> 59         0.00035
      15 -> 60        -0.00023
      15 -> 61        -0.00088
      15 -> 64         0.00030
      15 -> 67         0.00022
      15 -> 68        -0.00033
      15 -> 69         0.00059
      15 -> 70         0.00028
      15 -> 71         0.00010
      15 -> 73         0.00013
      15 -> 76        -0.00020
      15 -> 77         0.00074
      15 -> 80        -0.00010
      15 -> 82        -0.00018
      15 -> 84         0.00010
      15 -> 86        -0.00011
      15 -> 87         0.00045
      15 -> 88         0.00051
      15 -> 94        -0.00025
      15 -> 95         0.00022
      15 -> 99         0.00029
      15 ->100         0.00087
      15 ->101         0.00054
      15 ->103        -0.00061
      15 ->105        -0.00012
      15 ->106        -0.00032
      15 ->108         0.00020
      15 ->109         0.00019
      15 ->110        -0.00016
      15 ->111        -0.00029
      15 ->112        -0.00021
      15 ->114         0.00018
      15 ->117        -0.00032
      15 ->118        -0.00025
      15 ->119         0.00015
      15 ->120        -0.00020
      15 ->121         0.00024
      15 ->126        -0.00014
      15 ->128        -0.00015
      15 ->129        -0.00028
      15 ->139         0.00012
      15 ->143         0.00022
      15 ->145         0.00012
      15 ->148        -0.00021
      15 ->150         0.00020
      15 ->153        -0.00010
      15 ->154        -0.00011
      15 ->157        -0.00011
      15 ->161        -0.00010
      15 ->176         0.00012
      16 -> 47         0.00013
      16 -> 48         0.00047
      16 -> 49         0.00072
      16 -> 50         0.00018
      16 -> 51         0.00076
      16 -> 53         0.00031
      16 -> 54         0.00117
      16 -> 55         0.00065
      16 -> 56        -0.00046
      16 -> 57        -0.00065
      16 -> 58        -0.00067
      16 -> 59        -0.00036
      16 -> 60        -0.00216
      16 -> 61        -0.00099
      16 -> 62        -0.00049
      16 -> 63         0.00153
      16 -> 64        -0.00115
      16 -> 65        -0.00044
      16 -> 67        -0.00028
      16 -> 68         0.00096
      16 -> 69         0.00110
      16 -> 70        -0.00098
      16 -> 71         0.00019
      16 -> 73         0.00081
      16 -> 74         0.00026
      16 -> 76         0.00011
      16 -> 80        -0.00071
      16 -> 83         0.00028
      16 -> 84        -0.00041
      16 -> 85        -0.00021
      16 -> 86        -0.00093
      16 -> 90         0.00058
      16 -> 95         0.00016
      16 -> 96         0.00012
      16 -> 97        -0.00016
      16 -> 98         0.00024
      16 -> 99        -0.00053
      16 ->100         0.00013
      16 ->101        -0.00034
      16 ->103        -0.00029
      16 ->104        -0.00036
      16 ->105        -0.00042
      16 ->106         0.00014
      16 ->108        -0.00015
      16 ->109        -0.00034
      16 ->110         0.00022
      16 ->111         0.00040
      16 ->112         0.00030
      16 ->113        -0.00055
      16 ->114         0.00036
      16 ->115        -0.00033
      16 ->116        -0.00047
      16 ->117        -0.00019
      16 ->119         0.00024
      16 ->120        -0.00023
      16 ->121        -0.00022
      16 ->123        -0.00027
      16 ->126         0.00018
      16 ->128         0.00010
      16 ->129         0.00025
      16 ->133         0.00077
      16 ->134        -0.00043
      16 ->140        -0.00010
      16 ->152        -0.00013
      16 ->153         0.00013
      16 ->158        -0.00014
      16 ->165         0.00014
      16 ->171         0.00014
      16 ->173         0.00012
      16 ->182        -0.00013
      17 -> 45        -0.00014
      17 -> 46        -0.00019
      17 -> 47         0.00037
      17 -> 48         0.00126
      17 -> 49         0.00078
      17 -> 50         0.00013
      17 -> 51        -0.00049
      17 -> 52        -0.00014
      17 -> 53         0.00135
      17 -> 55        -0.00108
      17 -> 56         0.00018
      17 -> 57         0.00067
      17 -> 61        -0.00182
      17 -> 62        -0.00015
      17 -> 63         0.00036
      17 -> 64         0.00035
      17 -> 66         0.00180
      17 -> 67         0.00025
      17 -> 68         0.00134
      17 -> 69         0.00104
      17 -> 70         0.00120
      17 -> 71        -0.00028
      17 -> 73        -0.00071
      17 -> 74        -0.00014
      17 -> 76         0.00028
      17 -> 77         0.00056
      17 -> 79         0.00093
      17 -> 81        -0.00079
      17 -> 83         0.00037
      17 -> 84         0.00033
      17 -> 85         0.00013
      17 -> 86        -0.00061
      17 -> 90        -0.00061
      17 -> 93         0.00014
      17 -> 94        -0.00070
      17 -> 95        -0.00018
      17 -> 96         0.00035
      17 -> 97         0.00037
      17 -> 99         0.00018
      17 ->100        -0.00029
      17 ->101         0.00024
      17 ->102         0.00031
      17 ->103         0.00030
      17 ->104         0.00043
      17 ->105         0.00017
      17 ->106         0.00075
      17 ->108        -0.00033
      17 ->109        -0.00047
      17 ->110        -0.00036
      17 ->111        -0.00063
      17 ->112         0.00025
      17 ->114        -0.00042
      17 ->115         0.00028
      17 ->116        -0.00036
      17 ->119        -0.00022
      17 ->120         0.00022
      17 ->123        -0.00026
      17 ->126        -0.00019
      17 ->128        -0.00015
      17 ->129        -0.00023
      17 ->131         0.00083
      17 ->134        -0.00039
      17 ->146         0.00011
      17 ->158        -0.00013
      17 ->165        -0.00011
      17 ->168        -0.00012
      17 ->169        -0.00019
      17 ->179        -0.00013
      18 -> 45        -0.00019
      18 -> 46        -0.00027
      18 -> 47         0.00053
      18 -> 48         0.00172
      18 -> 49         0.00065
      18 -> 51        -0.00042
      18 -> 53        -0.00037
      18 -> 54         0.00059
      18 -> 55        -0.00083
      18 -> 56         0.00068
      18 -> 57        -0.00154
      18 -> 58         0.00085
      18 -> 59        -0.00047
      18 -> 60        -0.00013
      18 -> 61        -0.00030
      18 -> 63        -0.00013
      18 -> 64         0.00104
      18 -> 65         0.00046
      18 -> 66         0.00014
      18 -> 67        -0.00011
      18 -> 68        -0.00133
      18 -> 69         0.00063
      18 -> 70         0.00111
      18 -> 71         0.00165
      18 -> 72        -0.00013
      18 -> 73        -0.00022
      18 -> 75         0.00028
      18 -> 76        -0.00135
      18 -> 77         0.00061
      18 -> 79         0.00040
      18 -> 80         0.00021
      18 -> 81         0.00054
      18 -> 82         0.00014
      18 -> 83         0.00110
      18 -> 86         0.00016
      18 -> 87        -0.00017
      18 -> 88        -0.00018
      18 -> 90         0.00084
      18 -> 93        -0.00025
      18 -> 94        -0.00029
      18 -> 95         0.00066
      18 -> 96        -0.00029
      18 -> 97        -0.00033
      18 -> 98         0.00029
      18 -> 99        -0.00013
      18 ->100        -0.00017
      18 ->101        -0.00014
      18 ->102        -0.00031
      18 ->104         0.00046
      18 ->105         0.00084
      18 ->106        -0.00058
      18 ->108        -0.00065
      18 ->109         0.00028
      18 ->110         0.00042
      18 ->111         0.00074
      18 ->112        -0.00030
      18 ->113        -0.00079
      18 ->114        -0.00018
      18 ->117        -0.00033
      18 ->118        -0.00020
      18 ->119         0.00066
      18 ->120        -0.00018
      18 ->121         0.00039
      18 ->124        -0.00017
      18 ->126        -0.00033
      18 ->128         0.00020
      18 ->129         0.00045
      18 ->131         0.00024
      18 ->133        -0.00036
      18 ->134         0.00020
      18 ->145        -0.00020
      18 ->150        -0.00010
      18 ->158        -0.00013
      18 ->161        -0.00010
      18 ->164         0.00012
      18 ->166         0.00023
      18 ->178         0.00015
      19 -> 45         0.00023
      19 -> 46         0.00034
      19 -> 47        -0.00067
      19 -> 48        -0.00215
      19 -> 49        -0.00055
      19 -> 51         0.00098
      19 -> 52         0.00013
      19 -> 53        -0.00057
      19 -> 54        -0.00071
      19 -> 56        -0.00098
      19 -> 57         0.00028
      19 -> 58         0.00148
      19 -> 59        -0.00172
      19 -> 60        -0.00020
      19 -> 62         0.00049
      19 -> 63        -0.00025
      19 -> 64        -0.00038
      19 -> 65         0.00054
      19 -> 66         0.00138
      19 -> 67        -0.00037
      19 -> 68         0.00063
      19 -> 69        -0.00023
      19 -> 70         0.00028
      19 -> 71        -0.00015
      19 -> 73        -0.00093
      19 -> 74        -0.00034
      19 -> 76        -0.00033
      19 -> 77        -0.00153
      19 -> 79         0.00152
      19 -> 80        -0.00042
      19 -> 81        -0.00116
      19 -> 82        -0.00024
      19 -> 83         0.00020
      19 -> 84        -0.00045
      19 -> 85        -0.00016
      19 -> 86         0.00038
      19 -> 87         0.00023
      19 -> 88         0.00020
      19 -> 90         0.00125
      19 -> 93        -0.00028
      19 -> 94         0.00016
      19 -> 95        -0.00034
      19 -> 96        -0.00024
      19 -> 97        -0.00020
      19 -> 98         0.00057
      19 ->102         0.00015
      19 ->103        -0.00066
      19 ->104         0.00072
      19 ->106         0.00049
      19 ->108        -0.00059
      19 ->109         0.00062
      19 ->110         0.00043
      19 ->111         0.00075
      19 ->112         0.00122
      19 ->113        -0.00057
      19 ->114        -0.00019
      19 ->115         0.00017
      19 ->116         0.00050
      19 ->117        -0.00019
      19 ->119        -0.00022
      19 ->121         0.00062
      19 ->123        -0.00019
      19 ->126        -0.00021
      19 ->128        -0.00013
      19 ->129        -0.00041
      19 ->134        -0.00027
      19 ->139        -0.00015
      19 ->146         0.00021
      19 ->158         0.00013
      19 ->161        -0.00018
      19 ->162         0.00029
      19 ->180         0.00014
      19 ->185         0.00014
      20 -> 45         0.00021
      20 -> 46         0.00032
      20 -> 47        -0.00067
      20 -> 48        -0.00206
      20 -> 49        -0.00116
      20 -> 51         0.00018
      20 -> 53         0.00137
      20 -> 54         0.00055
      20 -> 55         0.00072
      20 -> 56        -0.00171
      20 -> 57         0.00163
      20 -> 58         0.00256
      20 -> 59        -0.00067
      20 -> 60        -0.00134
      20 -> 61         0.00026
      20 -> 62        -0.00100
      20 -> 63         0.00042
      20 -> 64        -0.00034
      20 -> 65         0.00049
      20 -> 66        -0.00103
      20 -> 67        -0.00089
      20 -> 70         0.00068
      20 -> 71         0.00120
      20 -> 73        -0.00037
      20 -> 74        -0.00014
      20 -> 77        -0.00079
      20 -> 79         0.00015
      20 -> 80        -0.00038
      20 -> 81         0.00068
      20 -> 83         0.00256
      20 -> 84        -0.00189
      20 -> 85        -0.00072
      20 -> 86         0.00047
      20 -> 87         0.00019
      20 -> 88         0.00011
      20 -> 90        -0.00178
      20 -> 91        -0.00015
      20 -> 93         0.00047
      20 -> 94         0.00015
      20 -> 95        -0.00021
      20 -> 97         0.00029
      20 -> 99         0.00013
      20 ->100         0.00018
      20 ->103         0.00016
      20 ->104         0.00172
      20 ->105        -0.00041
      20 ->106         0.00048
      20 ->108        -0.00087
      20 ->109         0.00095
      20 ->110         0.00036
      20 ->111         0.00062
      20 ->112         0.00102
      20 ->113        -0.00037
      20 ->114        -0.00039
      20 ->116         0.00082
      20 ->117        -0.00029
      20 ->119         0.00055
      20 ->120        -0.00031
      20 ->121         0.00015
      20 ->123        -0.00022
      20 ->126        -0.00021
      20 ->129        -0.00031
      20 ->131         0.00015
      20 ->133         0.00022
      20 ->134         0.00030
      20 ->137        -0.00013
      20 ->140        -0.00025
      20 ->142         0.00030
      20 ->143         0.00023
      20 ->145        -0.00051
      20 ->146        -0.00016
      20 ->147        -0.00013
      20 ->148         0.00016
      20 ->149        -0.00016
      20 ->150         0.00016
      20 ->151         0.00014
      20 ->154         0.00012
      20 ->183        -0.00015
      20 ->184         0.00014
      21 -> 45        -0.00023
      21 -> 46        -0.00042
      21 -> 47         0.00102
      21 -> 48         0.00291
      21 -> 49         0.00420
      21 -> 50         0.00017
      21 -> 51        -0.00352
      21 -> 52        -0.00050
      21 -> 53        -0.00099
      21 -> 54        -0.00036
      21 -> 55        -0.00067
      21 -> 56         0.00229
      21 -> 57        -0.00304
      21 -> 58        -0.00326
      21 -> 59        -0.00041
      21 -> 60        -0.00055
      21 -> 62        -0.00044
      21 -> 63         0.00017
      21 -> 64         0.00011
      21 -> 65        -0.00158
      21 -> 66        -0.00080
      21 -> 67         0.00047
      21 -> 68        -0.00176
      21 -> 69         0.00078
      21 -> 70         0.00023
      21 -> 71         0.00066
      21 -> 74         0.00011
      21 -> 75         0.00012
      21 -> 76        -0.00012
      21 -> 77         0.00059
      21 -> 79        -0.00017
      21 -> 80        -0.00085
      21 -> 81         0.00031
      21 -> 83         0.00091
      21 -> 84        -0.00096
      21 -> 85        -0.00037
      21 -> 86         0.00062
      21 -> 87        -0.00010
      21 -> 88        -0.00012
      21 -> 90        -0.00118
      21 -> 93         0.00024
      21 -> 94        -0.00044
      21 -> 95         0.00048
      21 -> 96         0.00066
      21 -> 98         0.00013
      21 -> 99         0.00021
      21 ->100        -0.00016
      21 ->101        -0.00040
      21 ->102        -0.00081
      21 ->103         0.00058
      21 ->104         0.00087
      21 ->105         0.00063
      21 ->106        -0.00087
      21 ->108        -0.00094
      21 ->110         0.00031
      21 ->111         0.00056
      21 ->112        -0.00013
      21 ->113        -0.00050
      21 ->114        -0.00057
      21 ->116         0.00011
      21 ->119         0.00033
      21 ->120        -0.00038
      21 ->126        -0.00018
      21 ->129         0.00025
      21 ->131         0.00030
      21 ->133         0.00012
      21 ->134         0.00028
      21 ->137        -0.00010
      21 ->139        -0.00012
      21 ->140        -0.00014
      21 ->142         0.00018
      21 ->143         0.00014
      21 ->146        -0.00021
      21 ->149        -0.00028
      21 ->150         0.00021
      21 ->152         0.00025
      21 ->155         0.00010
      21 ->156        -0.00012
      21 ->161        -0.00017
      21 ->162         0.00016
      21 ->163        -0.00012
      21 ->165         0.00014
      21 ->166        -0.00012
      21 ->183        -0.00011
      21 ->184         0.00022
      21 ->188        -0.00014
      21 ->196        -0.00011
      22 -> 48        -0.00164
      22 -> 49         0.00901
      22 -> 50         0.00052
      22 -> 51        -0.00437
      22 -> 52        -0.00075
      22 -> 53        -0.00043
      22 -> 54         0.00167
      22 -> 55        -0.00098
      22 -> 56        -0.00062
      22 -> 57         0.00143
      22 -> 58         0.00162
      22 -> 59         0.00223
      22 -> 60         0.00059
      22 -> 61        -0.00069
      22 -> 62        -0.00023
      22 -> 63         0.00144
      22 -> 64         0.00158
      22 -> 65         0.00063
      22 -> 66         0.00104
      22 -> 67         0.00042
      22 -> 68         0.00108
      22 -> 69         0.00074
      22 -> 70         0.00025
      22 -> 71        -0.00031
      22 -> 73        -0.00082
      22 -> 74        -0.00021
      22 -> 77        -0.00052
      22 -> 79         0.00087
      22 -> 81        -0.00040
      22 -> 83        -0.00024
      22 -> 84        -0.00074
      22 -> 85        -0.00026
      22 -> 86         0.00052
      22 -> 88        -0.00024
      22 -> 89        -0.00012
      22 -> 90         0.00079
      22 -> 93        -0.00013
      22 -> 94        -0.00060
      22 -> 95         0.00066
      22 -> 96         0.00082
      22 -> 97        -0.00046
      22 -> 98         0.00112
      22 -> 99         0.00039
      22 ->100        -0.00022
      22 ->101        -0.00034
      22 ->102         0.00058
      22 ->104        -0.00013
      22 ->105        -0.00012
      22 ->106         0.00112
      22 ->108         0.00029
      22 ->112         0.00017
      22 ->113         0.00032
      22 ->114        -0.00023
      22 ->115         0.00019
      22 ->116        -0.00032
      22 ->117        -0.00056
      22 ->120         0.00030
      22 ->121         0.00016
      22 ->129        -0.00012
      22 ->134        -0.00036
      22 ->136        -0.00010
      22 ->138        -0.00021
      22 ->139        -0.00037
      22 ->140         0.00013
      22 ->143         0.00017
      22 ->145        -0.00023
      22 ->146         0.00018
      22 ->149         0.00019
      22 ->152        -0.00015
      22 ->153        -0.00018
      22 ->163         0.00012
      22 ->186        -0.00013
      22 ->188         0.00011
      23 -> 46         0.00011
      23 -> 47        -0.00037
      23 -> 48        -0.00133
      23 -> 51        -0.00079
      23 -> 52        -0.00032
      23 -> 53         0.00252
      23 -> 54        -0.00253
      23 -> 55        -0.00305
      23 -> 56        -0.00328
      23 -> 57         0.00024
      23 -> 58        -0.00075
      23 -> 59        -0.00128
      23 -> 60        -0.00067
      23 -> 61         0.00128
      23 -> 62         0.00028
      23 -> 63        -0.00026
      23 -> 64        -0.00143
      23 -> 65        -0.00016
      23 -> 66        -0.00069
      23 -> 67        -0.00088
      23 -> 68        -0.00018
      23 -> 69         0.00141
      23 -> 70        -0.00059
      23 -> 71        -0.00038
      23 -> 73         0.00071
      23 -> 74         0.00019
      23 -> 76         0.00073
      23 -> 77         0.00038
      23 -> 79        -0.00013
      23 -> 80         0.00022
      23 -> 81        -0.00032
      23 -> 83         0.00029
      23 -> 84         0.00099
      23 -> 85         0.00044
      23 -> 88         0.00015
      23 -> 90        -0.00020
      23 -> 93         0.00062
      23 -> 94        -0.00092
      23 -> 95        -0.00056
      23 -> 97        -0.00028
      23 -> 99        -0.00026
      23 ->100         0.00018
      23 ->101         0.00021
      23 ->102        -0.00011
      23 ->103        -0.00011
      23 ->104        -0.00054
      23 ->105        -0.00041
      23 ->106        -0.00044
      23 ->108         0.00033
      23 ->109         0.00017
      23 ->112         0.00027
      23 ->113        -0.00012
      23 ->114        -0.00029
      23 ->115         0.00048
      23 ->116        -0.00072
      23 ->117        -0.00020
      23 ->118         0.00011
      23 ->120        -0.00030
      23 ->121        -0.00027
      23 ->123        -0.00015
      23 ->126        -0.00012
      23 ->131        -0.00023
      23 ->134         0.00019
      23 ->145         0.00017
      23 ->146        -0.00010
      23 ->148         0.00021
      23 ->153         0.00015
      23 ->154        -0.00011
      23 ->165         0.00020
      23 ->171        -0.00011
      23 ->173        -0.00011
      23 ->185        -0.00011
      24 -> 46         0.00021
      24 -> 47        -0.00063
      24 -> 48        -0.00302
      24 -> 49         0.00342
      24 -> 50         0.00037
      24 -> 51         0.00117
      24 -> 52         0.00012
      24 -> 53        -0.00207
      24 -> 54         0.00317
      24 -> 55         0.00281
      24 -> 56        -0.00210
      24 -> 57        -0.00433
      24 -> 58         0.00044
      24 -> 59        -0.00332
      24 -> 60        -0.00209
      24 -> 61         0.00048
      24 -> 62        -0.00167
      24 -> 63         0.00016
      24 -> 64        -0.00179
      24 -> 65         0.00034
      24 -> 66         0.00122
      24 -> 67        -0.00041
      24 -> 68        -0.00062
      24 -> 69        -0.00023
      24 -> 70        -0.00104
      24 -> 71        -0.00116
      24 -> 73         0.00054
      24 -> 74         0.00015
      24 -> 76        -0.00067
      24 -> 77        -0.00022
      24 -> 80         0.00113
      24 -> 81         0.00036
      24 -> 83        -0.00110
      24 -> 84         0.00102
      24 -> 85         0.00045
      24 -> 90        -0.00098
      24 -> 93        -0.00112
      24 -> 94        -0.00040
      24 -> 95        -0.00012
      24 -> 96         0.00075
      24 -> 97         0.00187
      24 -> 98        -0.00044
      24 -> 99         0.00069
      24 ->100         0.00031
      24 ->101         0.00017
      24 ->102        -0.00019
      24 ->103         0.00066
      24 ->104        -0.00030
      24 ->105        -0.00113
      24 ->106        -0.00091
      24 ->108        -0.00033
      24 ->109         0.00013
      24 ->111         0.00017
      24 ->112        -0.00061
      24 ->113         0.00026
      24 ->115        -0.00030
      24 ->116         0.00012
      24 ->117         0.00013
      24 ->118        -0.00019
      24 ->119        -0.00022
      24 ->120        -0.00016
      24 ->121        -0.00017
      24 ->123        -0.00011
      24 ->131        -0.00010
      24 ->133         0.00044
      24 ->134         0.00024
      24 ->137        -0.00032
      24 ->140        -0.00011
      24 ->145         0.00034
      24 ->146         0.00017
      24 ->147        -0.00012
      24 ->148         0.00020
      24 ->149         0.00010
      24 ->150        -0.00019
      24 ->153         0.00019
      24 ->156         0.00027
      24 ->163        -0.00011
      24 ->167         0.00015
      24 ->180        -0.00028
      24 ->181         0.00016
      24 ->184         0.00017
      24 ->185        -0.00015
      24 ->187         0.00012
      24 ->189         0.00011
      25 -> 46         0.00025
      25 -> 47        -0.00079
      25 -> 48        -0.00430
      25 -> 49         0.00206
      25 -> 50        -0.00085
      25 -> 51        -0.00661
      25 -> 52        -0.00055
      25 -> 53        -0.00553
      25 -> 54         0.00023
      25 -> 55         0.00129
      25 -> 56        -0.00093
      25 -> 57         0.00464
      25 -> 58        -0.00278
      25 -> 59        -0.00160
      25 -> 60         0.00066
      25 -> 61         0.00033
      25 -> 63        -0.00043
      25 -> 64        -0.00072
      25 -> 65         0.00034
      25 -> 66        -0.00065
      25 -> 67        -0.00256
      25 -> 68        -0.00038
      25 -> 69        -0.00149
      25 -> 70         0.00024
      25 -> 73         0.00208
      25 -> 74         0.00068
      25 -> 76         0.00118
      25 -> 77        -0.00030
      25 -> 79        -0.00077
      25 -> 80        -0.00037
      25 -> 83        -0.00100
      25 -> 84         0.00057
      25 -> 85         0.00032
      25 -> 86        -0.00031
      25 -> 87        -0.00021
      25 -> 88        -0.00023
      25 -> 89        -0.00016
      25 -> 93         0.00064
      25 -> 94         0.00060
      25 -> 95        -0.00034
      25 -> 96         0.00102
      25 -> 97        -0.00035
      25 -> 99         0.00093
      25 ->100         0.00075
      25 ->101        -0.00050
      25 ->103         0.00013
      25 ->104        -0.00073
      25 ->105        -0.00011
      25 ->106        -0.00078
      25 ->108         0.00071
      25 ->109        -0.00027
      25 ->110         0.00022
      25 ->111         0.00037
      25 ->112        -0.00026
      25 ->113         0.00085
      25 ->114         0.00022
      25 ->115        -0.00020
      25 ->116         0.00029
      25 ->120        -0.00016
      25 ->123        -0.00015
      25 ->126         0.00012
      25 ->129        -0.00014
      25 ->131        -0.00013
      25 ->134         0.00022
      25 ->136        -0.00014
      25 ->138        -0.00022
      25 ->139        -0.00033
      25 ->145         0.00011
      25 ->146        -0.00017
      25 ->150        -0.00011
      25 ->152        -0.00014
      25 ->178         0.00012
      26 -> 46        -0.00030
      26 -> 47         0.00113
      26 -> 48         0.00489
      26 -> 49        -0.00249
      26 -> 50        -0.00031
      26 -> 51        -0.00118
      26 -> 53         0.00173
      26 -> 54         0.00108
      26 -> 55         0.00067
      26 -> 56        -0.00118
      26 -> 57         0.00094
      26 -> 58        -0.00011
      26 -> 59        -0.00046
      26 -> 60         0.00218
      26 -> 61        -0.00078
      26 -> 62        -0.00169
      26 -> 63        -0.00017
      26 -> 64         0.00173
      26 -> 65         0.00067
      26 -> 66         0.00100
      26 -> 67         0.00031
      26 -> 68         0.00190
      26 -> 69         0.00093
      26 -> 70        -0.00065
      26 -> 71        -0.00017
      26 -> 73        -0.00088
      26 -> 74        -0.00032
      26 -> 75         0.00014
      26 -> 76        -0.00128
      26 -> 77        -0.00040
      26 -> 79         0.00137
      26 -> 80        -0.00077
      26 -> 81        -0.00220
      26 -> 82        -0.00031
      26 -> 83        -0.00053
      26 -> 84        -0.00069
      26 -> 85        -0.00034
      26 -> 86        -0.00014
      26 -> 88        -0.00024
      26 -> 90         0.00022
      26 -> 91        -0.00026
      26 -> 92        -0.00011
      26 -> 93        -0.00036
      26 -> 94        -0.00055
      26 -> 95        -0.00167
      26 -> 96         0.00110
      26 -> 97         0.00197
      26 -> 98        -0.00128
      26 -> 99         0.00115
      26 ->100        -0.00099
      26 ->101         0.00012
      26 ->102         0.00070
      26 ->103         0.00099
      26 ->104         0.00042
      26 ->105        -0.00095
      26 ->106         0.00020
      26 ->108         0.00044
      26 ->109        -0.00029
      26 ->111        -0.00011
      26 ->112         0.00089
      26 ->113         0.00017
      26 ->114         0.00032
      26 ->116        -0.00044
      26 ->118         0.00028
      26 ->119        -0.00042
      26 ->120         0.00030
      26 ->123        -0.00033
      26 ->126        -0.00020
      26 ->128        -0.00013
      26 ->131         0.00027
      26 ->133         0.00014
      26 ->137        -0.00022
      26 ->140         0.00030
      26 ->145        -0.00010
      26 ->146         0.00017
      26 ->148        -0.00012
      26 ->149         0.00019
      26 ->150         0.00011
      26 ->152        -0.00014
      26 ->153        -0.00056
      26 ->156         0.00012
      26 ->157         0.00012
      26 ->158         0.00011
      26 ->161        -0.00013
      26 ->162         0.00026
      26 ->163         0.00017
      26 ->166         0.00010
      26 ->167        -0.00018
      26 ->175         0.00019
      26 ->178        -0.00013
      26 ->180        -0.00018
      26 ->181         0.00018
      27 -> 46         0.00034
      27 -> 47        -0.00123
      27 -> 48        -0.00495
      27 -> 49         0.00104
      27 -> 50         0.00023
      27 -> 51        -0.00070
      27 -> 52        -0.00067
      27 -> 53         0.00554
      27 -> 54        -0.00410
      27 -> 55        -0.00125
      27 -> 56         0.00123
      27 -> 57        -0.00209
      27 -> 58        -0.00035
      27 -> 59         0.00485
      27 -> 60         0.00125
      27 -> 61        -0.00141
      27 -> 62        -0.00104
      27 -> 63        -0.00065
      27 -> 64        -0.00040
      27 -> 65        -0.00229
      27 -> 66        -0.00047
      27 -> 67         0.00055
      27 -> 69        -0.00090
      27 -> 70        -0.00036
      27 -> 71         0.00232
      27 -> 73         0.00054
      27 -> 74         0.00025
      27 -> 76         0.00021
      27 -> 77        -0.00044
      27 -> 80         0.00016
      27 -> 81         0.00176
      27 -> 82         0.00023
      27 -> 83        -0.00078
      27 -> 84         0.00122
      27 -> 85         0.00041
      27 -> 86        -0.00028
      27 -> 88         0.00032
      27 -> 89         0.00021
      27 -> 90         0.00023
      27 -> 91         0.00028
      27 -> 92         0.00015
      27 -> 93         0.00153
      27 -> 94        -0.00039
      27 -> 95         0.00056
      27 -> 96         0.00061
      27 -> 97         0.00084
      27 -> 98        -0.00109
      27 ->100         0.00064
      27 ->101         0.00106
      27 ->102        -0.00082
      27 ->103         0.00018
      27 ->104        -0.00015
      27 ->105         0.00024
      27 ->106        -0.00071
      27 ->108         0.00057
      27 ->112        -0.00076
      27 ->113        -0.00043
      27 ->114         0.00027
      27 ->115         0.00016
      27 ->116        -0.00014
      27 ->120        -0.00020
      27 ->121        -0.00021
      27 ->129        -0.00013
      27 ->134         0.00012
      27 ->139         0.00026
      27 ->140         0.00020
      27 ->142        -0.00028
      27 ->145        -0.00017
      27 ->149         0.00014
      27 ->150        -0.00037
      27 ->152        -0.00015
      27 ->153         0.00011
      27 ->156         0.00015
      27 ->159        -0.00016
      27 ->166         0.00012
      27 ->175         0.00013
      27 ->181         0.00015
      28 -> 45        -0.00096
      28 -> 46         0.00407
      28 -> 47         0.00428
      28 -> 48        -0.00086
      28 -> 49        -0.00039
      28 -> 50         0.00266
      28 -> 51        -0.00034
      28 -> 52         0.00099
      28 -> 72         0.00085
      28 -> 73        -0.00041
      28 -> 74         0.00132
      28 -> 75        -0.00137
      28 -> 76        -0.00019
      28 -> 81        -0.00015
      28 -> 82         0.00130
      28 -> 87         0.00117
      28 -> 88        -0.00078
      28 -> 89         0.00039
      28 -> 91         0.00116
      28 -> 92        -0.00168
      28 ->110        -0.00179
      28 ->111         0.00102
      28 ->122        -0.00020
      28 ->125         0.00014
      28 ->132        -0.00011
      28 ->141         0.00023
      28 ->144        -0.00012
      28 ->157         0.00021
      28 ->160        -0.00025
      28 ->161        -0.00015
      28 ->162        -0.00011
      28 ->164         0.00017
      28 ->168         0.00015
      28 ->174         0.00014
      29 -> 46        -0.00027
      29 -> 47         0.00107
      29 -> 48         0.00424
      29 -> 49        -0.00022
      29 -> 51         0.00059
      29 -> 52         0.00037
      29 -> 53        -0.00109
      29 -> 55        -0.00116
      29 -> 56        -0.00012
      29 -> 57         0.00492
      29 -> 58         0.00218
      29 -> 59        -0.00086
      29 -> 60        -0.00259
      29 -> 61         0.00013
      29 -> 62        -0.00222
      29 -> 63         0.00256
      29 -> 64        -0.00330
      29 -> 65        -0.00151
      29 -> 66        -0.00064
      29 -> 67        -0.00189
      29 -> 68        -0.00113
      29 -> 69         0.00070
      29 -> 70        -0.00207
      29 -> 71        -0.00118
      29 -> 73        -0.00127
      29 -> 74        -0.00051
      29 -> 75        -0.00010
      29 -> 77         0.00012
      29 -> 78        -0.00011
      29 -> 80        -0.00033
      29 -> 81        -0.00065
      29 -> 82        -0.00014
      29 -> 83        -0.00037
      29 -> 84        -0.00040
      29 -> 86         0.00030
      29 -> 88        -0.00017
      29 -> 89        -0.00013
      29 -> 90         0.00034
      29 -> 91        -0.00019
      29 -> 92        -0.00011
      29 -> 93         0.00379
      29 -> 94         0.00056
      29 -> 95         0.00035
      29 -> 96        -0.00021
      29 -> 97         0.00087
      29 -> 98         0.00031
      29 -> 99        -0.00033
      29 ->101        -0.00099
      29 ->102        -0.00033
      29 ->104        -0.00055
      29 ->106         0.00017
      29 ->108         0.00021
      29 ->110         0.00039
      29 ->111         0.00069
      29 ->112         0.00018
      29 ->113        -0.00046
      29 ->114         0.00023
      29 ->116         0.00080
      29 ->118         0.00017
      29 ->119         0.00013
      29 ->120        -0.00037
      29 ->121        -0.00058
      29 ->123        -0.00030
      29 ->124         0.00015
      29 ->126         0.00028
      29 ->127         0.00010
      29 ->133         0.00013
      29 ->137         0.00021
      29 ->139        -0.00014
      29 ->140         0.00016
      29 ->142        -0.00049
      29 ->143         0.00030
      29 ->145         0.00024
      29 ->148        -0.00012
      29 ->149        -0.00018
      29 ->152        -0.00014
      29 ->153         0.00036
      29 ->154        -0.00012
      29 ->158         0.00021
      29 ->159        -0.00018
      29 ->160        -0.00012
      29 ->161         0.00013
      29 ->162         0.00011
      29 ->165        -0.00012
      29 ->179         0.00018
      29 ->180         0.00022
      29 ->181         0.00025
      29 ->187         0.00017
      30 -> 45        -0.00032
      30 -> 46        -0.00022
      30 -> 47         0.00034
      30 -> 48         0.00153
      30 -> 49         0.00071
      30 -> 50         0.00015
      30 -> 51        -0.00028
      30 -> 53         0.00038
      30 -> 54         0.00040
      30 -> 55        -0.00061
      30 -> 56         0.00030
      30 -> 57         0.01034
      30 -> 58         0.00458
      30 -> 59        -0.00141
      30 -> 60         0.00188
      30 -> 61        -0.00016
      30 -> 62        -0.00141
      30 -> 63        -0.00125
      30 -> 64         0.00139
      30 -> 65        -0.00039
      30 -> 66         0.00071
      30 -> 67         0.00271
      30 -> 68        -0.00399
      30 -> 69        -0.00028
      30 -> 70        -0.00044
      30 -> 71         0.00147
      30 -> 72        -0.00012
      30 -> 73        -0.00058
      30 -> 76        -0.00033
      30 -> 77        -0.00012
      30 -> 78        -0.00012
      30 -> 80        -0.00017
      30 -> 81         0.00184
      30 -> 82         0.00021
      30 -> 83         0.00104
      30 -> 84        -0.00056
      30 -> 87         0.00015
      30 -> 88         0.00054
      30 -> 90        -0.00048
      30 -> 91         0.00036
      30 -> 92         0.00012
      30 -> 93        -0.00122
      30 -> 94        -0.00017
      30 -> 95        -0.00064
      30 -> 96        -0.00043
      30 -> 97        -0.00033
      30 -> 98         0.00046
      30 ->100         0.00124
      30 ->101         0.00039
      30 ->102        -0.00110
      30 ->103         0.00179
      30 ->104         0.00105
      30 ->105         0.00095
      30 ->106        -0.00022
      30 ->108        -0.00023
      30 ->109         0.00022
      30 ->110         0.00024
      30 ->111         0.00042
      30 ->114        -0.00016
      30 ->115         0.00019
      30 ->116        -0.00017
      30 ->117        -0.00015
      30 ->118        -0.00017
      30 ->119        -0.00038
      30 ->121         0.00040
      30 ->123         0.00018
      30 ->126        -0.00017
      30 ->134         0.00015
      30 ->140         0.00028
      30 ->143        -0.00032
      30 ->145         0.00032
      30 ->148        -0.00011
      30 ->149        -0.00021
      30 ->150        -0.00028
      30 ->152         0.00018
      30 ->154        -0.00014
      30 ->155         0.00015
      30 ->157        -0.00010
      30 ->158        -0.00012
      30 ->161        -0.00017
      30 ->163        -0.00010
      30 ->165         0.00018
      30 ->171        -0.00012
      30 ->175         0.00011
      30 ->178        -0.00012
      30 ->181        -0.00011
      30 ->183         0.00021
      30 ->185        -0.00010
      30 ->186         0.00019
      31 -> 45         0.00031
      31 -> 46        -0.00015
      31 -> 47         0.00111
      31 -> 48         0.00371
      31 -> 49        -0.00052
      31 -> 50        -0.00046
      31 -> 51        -0.00192
      31 -> 53         0.00357
      31 -> 54        -0.00163
      31 -> 55         0.00215
      31 -> 56        -0.00510
      31 -> 57        -0.00069
      31 -> 58        -0.00154
      31 -> 59         0.00094
      31 -> 60        -0.00240
      31 -> 61         0.00203
      31 -> 62        -0.00027
      31 -> 63         0.00318
      31 -> 64        -0.00260
      31 -> 65        -0.00234
      31 -> 66        -0.00034
      31 -> 67        -0.00254
      31 -> 68         0.00114
      31 -> 69        -0.00166
      31 -> 70        -0.00591
      31 -> 71        -0.00140
      31 -> 72         0.00030
      31 -> 73         0.00017
      31 -> 74        -0.00027
      31 -> 75        -0.00049
      31 -> 76         0.00222
      31 -> 77         0.00075
      31 -> 78        -0.00010
      31 -> 79        -0.00127
      31 -> 80        -0.00122
      31 -> 81        -0.00063
      31 -> 82        -0.00022
      31 -> 83        -0.00178
      31 -> 84         0.00043
      31 -> 85         0.00011
      31 -> 86        -0.00017
      31 -> 88        -0.00046
      31 -> 89        -0.00016
      31 -> 90        -0.00077
      31 -> 91        -0.00051
      31 -> 92        -0.00021
      31 -> 93        -0.00125
      31 -> 94         0.00061
      31 -> 95        -0.00012
      31 -> 96         0.00058
      31 -> 97        -0.00225
      31 -> 98        -0.00103
      31 -> 99        -0.00118
      31 ->100         0.00048
      31 ->101        -0.00030
      31 ->102        -0.00013
      31 ->103         0.00053
      31 ->104        -0.00154
      31 ->105        -0.00096
      31 ->106        -0.00032
      31 ->109         0.00056
      31 ->113         0.00021
      31 ->114         0.00057
      31 ->115        -0.00042
      31 ->116         0.00034
      31 ->117         0.00031
      31 ->118        -0.00019
      31 ->119        -0.00052
      31 ->120         0.00012
      31 ->121        -0.00014
      31 ->123        -0.00028
      31 ->126         0.00038
      31 ->129         0.00030
      31 ->131        -0.00028
      31 ->133         0.00027
      31 ->134         0.00013
      31 ->135         0.00010
      31 ->142         0.00015
      31 ->143         0.00018
      31 ->145         0.00025
      31 ->146         0.00033
      31 ->149         0.00036
      31 ->152        -0.00027
      31 ->153         0.00033
      31 ->156         0.00027
      31 ->158         0.00026
      31 ->159         0.00011
      31 ->161         0.00017
      31 ->165        -0.00015
      31 ->166        -0.00021
      31 ->167         0.00019
      31 ->169         0.00019
      31 ->170         0.00010
      31 ->171         0.00023
      31 ->173         0.00014
      31 ->181        -0.00020
      31 ->184         0.00013
      31 ->185        -0.00030
      31 ->186        -0.00015
      32 -> 45         0.00035
      32 -> 46         0.00036
      32 -> 47        -0.00072
      32 -> 48        -0.00270
      32 -> 49        -0.00012
      32 -> 51        -0.00168
      32 -> 52        -0.00054
      32 -> 53         0.00249
      32 -> 54        -0.00094
      32 -> 55        -0.00871
      32 -> 56         0.01101
      32 -> 57         0.00176
      32 -> 59         0.00239
      32 -> 60        -0.00068
      32 -> 61         0.00039
      32 -> 62        -0.00488
      32 -> 63         0.00063
      32 -> 64        -0.00578
      32 -> 65         0.00527
      32 -> 66         0.00261
      32 -> 67        -0.00282
      32 -> 68        -0.00173
      32 -> 69         0.00052
      32 -> 70        -0.00120
      32 -> 71         0.00056
      32 -> 76         0.00041
      32 -> 77        -0.00043
      32 -> 78         0.00019
      32 -> 79        -0.00028
      32 -> 80         0.00025
      32 -> 83         0.00114
      32 -> 84        -0.00238
      32 -> 85        -0.00128
      32 -> 86         0.00022
      32 -> 87        -0.00010
      32 -> 88        -0.00055
      32 -> 90        -0.00077
      32 -> 91        -0.00042
      32 -> 92        -0.00011
      32 -> 94        -0.00035
      32 -> 95         0.00027
      32 -> 96         0.00103
      32 -> 97        -0.00113
      32 -> 98        -0.00107
      32 -> 99        -0.00041
      32 ->100         0.00010
      32 ->101        -0.00029
      32 ->102         0.00019
      32 ->103        -0.00041
      32 ->104         0.00201
      32 ->108        -0.00011
      32 ->109         0.00018
      32 ->110         0.00057
      32 ->111         0.00100
      32 ->112         0.00043
      32 ->114         0.00030
      32 ->115         0.00023
      32 ->116        -0.00014
      32 ->117         0.00048
      32 ->118        -0.00049
      32 ->119         0.00019
      32 ->120        -0.00029
      32 ->121         0.00029
      32 ->123        -0.00024
      32 ->124        -0.00010
      32 ->126        -0.00020
      32 ->133         0.00016
      32 ->134         0.00019
      32 ->139        -0.00014
      32 ->140         0.00036
      32 ->142        -0.00024
      32 ->143        -0.00012
      32 ->145         0.00025
      32 ->146         0.00041
      32 ->147        -0.00011
      32 ->149        -0.00052
      32 ->154         0.00015
      32 ->156         0.00013
      32 ->162         0.00017
      32 ->164         0.00010
      32 ->171         0.00011
      32 ->175         0.00017
      32 ->181        -0.00011
      32 ->184         0.00011
      33 -> 45         0.00106
      33 -> 46         0.00016
      33 -> 47         0.00117
      33 -> 48         0.00056
      33 -> 49         0.00537
      33 -> 50        -0.00056
      33 -> 51         0.00564
      33 -> 52         0.00245
      33 -> 53        -0.00520
      33 -> 54        -0.00965
      33 -> 55        -0.00165
      33 -> 56         0.00033
      33 -> 57         0.00052
      33 -> 58         0.00216
      33 -> 59         0.00110
      33 -> 60         0.00889
      33 -> 61         0.01075
      33 -> 62         0.00163
      33 -> 63        -0.00619
      33 -> 64         0.00129
      33 -> 65        -0.00075
      33 -> 66        -0.00268
      33 -> 67         0.00059
      33 -> 68        -0.00750
      33 -> 69        -0.00848
      33 -> 70         0.00073
      33 -> 71        -0.00016
      33 -> 72         0.00080
      33 -> 73         0.00041
      33 -> 74        -0.00080
      33 -> 75        -0.00038
      33 -> 76        -0.00163
      33 -> 77         0.00043
      33 -> 78        -0.00041
      33 -> 79        -0.00190
      33 -> 81         0.00194
      33 -> 83        -0.00032
      33 -> 84        -0.00017
      33 -> 86         0.00078
      33 -> 87         0.00020
      33 -> 88        -0.00040
      33 -> 89        -0.00029
      33 -> 90         0.00024
      33 -> 91        -0.00072
      33 -> 92        -0.00033
      33 -> 94         0.00016
      33 -> 95         0.00076
      33 -> 96        -0.00026
      33 -> 97         0.00064
      33 -> 98        -0.00046
      33 ->100        -0.00019
      33 ->101        -0.00011
      33 ->102        -0.00039
      33 ->103         0.00093
      33 ->104         0.00026
      33 ->105         0.00077
      33 ->106        -0.00106
      33 ->108         0.00120
      33 ->109         0.00136
      33 ->111        -0.00015
      33 ->112         0.00011
      33 ->113         0.00080
      33 ->115         0.00032
      33 ->116         0.00074
      33 ->117         0.00011
      33 ->120        -0.00012
      33 ->121         0.00049
      33 ->123         0.00065
      33 ->124         0.00013
      33 ->126         0.00036
      33 ->128         0.00010
      33 ->129         0.00037
      33 ->131        -0.00026
      33 ->132         0.00014
      33 ->133        -0.00069
      33 ->134         0.00047
      33 ->135         0.00018
      33 ->136         0.00012
      33 ->140         0.00026
      33 ->142         0.00027
      33 ->143         0.00017
      33 ->145        -0.00019
      33 ->146        -0.00025
      33 ->149        -0.00014
      33 ->150        -0.00026
      33 ->151        -0.00018
      33 ->152        -0.00012
      33 ->154         0.00011
      33 ->155         0.00036
      33 ->162        -0.00027
      33 ->163        -0.00021
      33 ->165         0.00015
      33 ->168         0.00017
      33 ->169         0.00029
      33 ->171        -0.00018
      33 ->172         0.00015
      33 ->173        -0.00026
      33 ->175         0.00017
      33 ->176         0.00037
      33 ->179        -0.00025
      33 ->183        -0.00040
      33 ->184        -0.00018
      34 -> 45        -0.00065
      34 -> 46        -0.00040
      34 -> 47         0.00012
      34 -> 48         0.00104
      34 -> 49        -0.00361
      34 -> 50        -0.00037
      34 -> 51        -0.00134
      34 -> 52        -0.00032
      34 -> 53        -0.00618
      34 -> 54        -0.01246
      34 -> 55         0.00164
      34 -> 57         0.00207
      34 -> 58        -0.00293
      34 -> 59        -0.00053
      34 -> 60        -0.00449
      34 -> 61        -0.00691
      34 -> 62        -0.00108
      34 -> 63         0.00022
      34 -> 64        -0.00384
      34 -> 65        -0.00474
      34 -> 66         0.00262
      34 -> 67         0.00153
      34 -> 68         0.00064
      34 -> 69         0.00602
      34 -> 70        -0.00341
      34 -> 71         0.00208
      34 -> 72        -0.00030
      34 -> 73        -0.00020
      34 -> 74         0.00025
      34 -> 75         0.00013
      34 -> 76         0.00018
      34 -> 77         0.00135
      34 -> 78        -0.00011
      34 -> 79        -0.00030
      34 -> 80         0.00123
      34 -> 81         0.00106
      34 -> 82         0.00024
      34 -> 83         0.00067
      34 -> 84         0.00019
      34 -> 85         0.00026
      34 -> 86        -0.00166
      34 -> 88         0.00053
      34 -> 90        -0.00061
      34 -> 91         0.00047
      34 -> 92         0.00016
      34 -> 93         0.00037
      34 -> 94         0.00020
      34 -> 95        -0.00174
      34 -> 97        -0.00059
      34 -> 98         0.00038
      34 -> 99        -0.00043
      34 ->100         0.00037
      34 ->102        -0.00037
      34 ->103         0.00040
      34 ->104         0.00023
      34 ->106        -0.00019
      34 ->108        -0.00013
      34 ->109        -0.00020
      34 ->112        -0.00013
      34 ->114         0.00051
      34 ->115        -0.00026
      34 ->116        -0.00059
      34 ->117        -0.00059
      34 ->118        -0.00060
      34 ->119         0.00048
      34 ->121        -0.00029
      34 ->123        -0.00039
      34 ->126        -0.00023
      34 ->128         0.00018
      34 ->129         0.00032
      34 ->133         0.00043
      34 ->139         0.00016
      34 ->140         0.00015
      34 ->143         0.00022
      34 ->145        -0.00060
      34 ->146         0.00031
      34 ->148        -0.00022
      34 ->149         0.00011
      34 ->150        -0.00021
      34 ->154        -0.00016
      34 ->158        -0.00021
      34 ->162         0.00018
      34 ->163         0.00023
      34 ->166         0.00020
      34 ->169         0.00012
      34 ->176        -0.00030
      34 ->178         0.00030
      34 ->186        -0.00015
      35 -> 45        -0.00313
      35 -> 46        -0.00174
      35 -> 47        -0.00216
      35 -> 48        -0.00105
      35 -> 49         0.00030
      35 -> 50         0.00453
      35 -> 51         0.00234
      35 -> 52        -0.00808
      35 -> 53        -0.00126
      35 -> 54        -0.00084
      35 -> 55        -0.00153
      35 -> 56        -0.00145
      35 -> 57         0.00026
      35 -> 58         0.00044
      35 -> 60         0.00193
      35 -> 61         0.00193
      35 -> 62         0.00080
      35 -> 63        -0.00196
      35 -> 64         0.00057
      35 -> 65        -0.00016
      35 -> 66        -0.00164
      35 -> 67        -0.00071
      35 -> 68        -0.00184
      35 -> 69        -0.00320
      35 -> 70        -0.00132
      35 -> 71        -0.00098
      35 -> 72        -0.00334
      35 -> 73        -0.00154
      35 -> 74         0.00339
      35 -> 75         0.00216
      35 -> 78         0.00139
      35 -> 79        -0.00051
      35 -> 80        -0.00047
      35 -> 81        -0.00019
      35 -> 82         0.00115
      35 -> 83        -0.00028
      35 -> 84        -0.00022
      35 -> 85        -0.00056
      35 -> 86         0.00034
      35 -> 87        -0.00195
      35 -> 88        -0.00091
      35 -> 89         0.00053
      35 -> 91         0.00154
      35 -> 92         0.00080
      35 -> 95         0.00029
      35 -> 98        -0.00019
      35 ->103         0.00019
      35 ->105         0.00011
      35 ->106        -0.00019
      35 ->108         0.00021
      35 ->109         0.00024
      35 ->117         0.00033
      35 ->118         0.00016
      35 ->120         0.00019
      35 ->124        -0.00078
      35 ->125        -0.00032
      35 ->126         0.00019
      35 ->127        -0.00017
      35 ->128         0.00026
      35 ->129        -0.00015
      35 ->130         0.00023
      35 ->131        -0.00029
      35 ->132        -0.00044
      35 ->133        -0.00016
      35 ->134         0.00021
      35 ->135        -0.00055
      35 ->136        -0.00059
      35 ->138        -0.00018
      35 ->139         0.00021
      35 ->143        -0.00011
      35 ->146        -0.00012
      35 ->147        -0.00015
      35 ->150        -0.00014
      35 ->154         0.00019
      35 ->157         0.00015
      35 ->161         0.00018
      35 ->163        -0.00013
      35 ->164         0.00011
      35 ->166        -0.00013
      35 ->169         0.00011
      35 ->170        -0.00022
      35 ->171        -0.00011
      35 ->178        -0.00011
      35 ->183        -0.00012
      36 -> 45         0.00023
      36 -> 46         0.00034
      36 -> 48         0.00035
      36 -> 49         0.00064
      36 -> 50         0.00022
      36 -> 51         0.00150
      36 -> 52         0.00106
      36 -> 53        -0.00177
      36 -> 54         0.00125
      36 -> 55        -0.01110
      36 -> 56        -0.01040
      36 -> 57        -0.00135
      36 -> 58        -0.00275
      36 -> 59         0.00048
      36 -> 60         0.00136
      36 -> 61        -0.00111
      36 -> 62         0.00078
      36 -> 63         0.00111
      36 -> 64         0.00079
      36 -> 65        -0.00420
      36 -> 66         0.00032
      36 -> 67        -0.00703
      36 -> 68         0.00199
      36 -> 69        -0.00068
      36 -> 70        -0.00368
      36 -> 71         0.00098
      36 -> 72         0.00043
      36 -> 73         0.00213
      36 -> 74         0.00026
      36 -> 75        -0.00033
      36 -> 76         0.00145
      36 -> 77        -0.00094
      36 -> 79        -0.00038
      36 -> 80        -0.00075
[...]
      41 <- 63        -0.00217
      41 <- 64         0.00094
      41 <- 65        -0.00112
      41 <- 67        -0.00045
      41 <- 68         0.00089
      41 <- 70         0.00069
      41 <- 71        -0.00076
      41 <- 73        -0.00033
      41 <- 74        -0.00011
      41 <- 75        -0.00010
      41 <- 76         0.00066
      41 <- 77         0.00026
      41 <- 79        -0.00026
      41 <- 83         0.00013
      41 <- 84         0.00011
      41 <- 86         0.00012
      41 <- 90        -0.00142
      41 <- 94         0.00026
      41 <- 95         0.00042
      41 <- 96        -0.00040
      41 <- 97        -0.00082
      41 <- 98         0.00046
      41 <- 99        -0.00039
      41 <-101        -0.00014
      41 <-103        -0.00036
      41 <-104        -0.00022
      41 <-106         0.00048
      41 <-108        -0.00067
      41 <-109        -0.00026
      41 <-110        -0.00041
      41 <-111        -0.00072
      41 <-112        -0.00027
      41 <-113         0.00039
      41 <-114        -0.00033
      41 <-115         0.00046
      41 <-116         0.00066
      41 <-117         0.00015
      41 <-120        -0.00015
      41 <-123        -0.00014
      41 <-126        -0.00014
      41 <-129         0.00016
      41 <-131        -0.00012
      41 <-140        -0.00044
      41 <-142        -0.00015
      41 <-143         0.00018
      41 <-153        -0.00010
      41 <-156         0.00020
      41 <-175         0.00013
      42 <- 45         0.00346
      42 <- 46        -0.00364
      42 <- 47        -0.00222
      42 <- 48         0.00040
      42 <- 49         0.00017
      42 <- 50        -0.00111
      42 <- 51         0.00016
      42 <- 52        -0.00044
      42 <- 87         0.00012
      42 <- 91         0.00016
      42 <- 92        -0.00026
      42 <-110        -0.00035
      42 <-111         0.00020
      42 <-122        -0.00014
      42 <-141         0.00021
      42 <-144        -0.00015
      43 <- 45        -0.00057
      43 <- 46        -0.00061
      43 <- 48        -0.00012
      43 <- 49        -0.00033
      43 <- 50        -0.00011
      43 <- 51        -0.00076
      43 <- 53         0.00034
      43 <- 55        -0.00016
      43 <- 58        -0.00029
      43 <- 60        -0.00187
      43 <- 61         0.00046
      43 <- 62         0.00035
      43 <- 63         0.00072
      43 <- 64        -0.00044
      43 <- 65         0.00066
      43 <- 66         0.00042
      43 <- 67         0.00052
      43 <- 70        -0.00053
      43 <- 71        -0.00031
      43 <- 73        -0.00040
      43 <- 77        -0.00017
      43 <- 79        -0.00013
      43 <- 80         0.00028
      43 <- 81         0.00027
      43 <- 83        -0.00061
      43 <- 84        -0.00019
      43 <- 86        -0.00030
      43 <- 90        -0.00015
      43 <- 93         0.00025
      43 <- 96        -0.00013
      43 <- 97        -0.00016
      43 <-106        -0.00013
      43 <-108         0.00039
      43 <-109        -0.00025
      43 <-110         0.00011
      43 <-111         0.00020
      43 <-112         0.00015
      43 <-113        -0.00029
      43 <-114         0.00011
      43 <-115         0.00020
      43 <-117        -0.00012
      43 <-120        -0.00014
      43 <-134         0.00014
      43 <-137         0.00016
      43 <-142         0.00025
      43 <-143        -0.00012
      43 <-146         0.00019
      43 <-159         0.00020
      44 <- 45        -0.00020
      44 <- 46         0.00026
      44 <- 47        -0.00072
      44 <- 48         0.00027
      44 <- 49        -0.00071
      44 <- 51        -0.00098
      44 <- 53         0.00060
      44 <- 55         0.00078
      44 <- 56         0.00015
      44 <- 57        -0.00014
      44 <- 58        -0.00082
      44 <- 59        -0.00037
      44 <- 60        -0.00111
      44 <- 61        -0.00070
      44 <- 62         0.00043
      44 <- 63         0.00025
      44 <- 64        -0.00028
      44 <- 65         0.00031
      44 <- 66         0.00163
      44 <- 67         0.00022
      44 <- 69        -0.00011
      44 <- 71        -0.00021
      44 <- 73        -0.00076
      44 <- 74        -0.00020
      44 <- 76        -0.00040
      44 <- 77        -0.00015
      44 <- 79         0.00032
      44 <- 80         0.00053
      44 <- 81         0.00022
      44 <- 83        -0.00077
      44 <- 84        -0.00022
      44 <- 85        -0.00019
      44 <- 86        -0.00051
      44 <- 93         0.00029
      44 <- 94         0.00017
      44 <- 95         0.00023
      44 <- 97        -0.00010
      44 <-103         0.00012
      44 <-104         0.00014
      44 <-108         0.00031
      44 <-109        -0.00020
      44 <-111         0.00012
      44 <-113        -0.00018
      44 <-134         0.00012
      44 <-142         0.00027
      44 <-143        -0.00025
      44 <-146         0.00026
      44 <-159         0.00013
 SavETr:  write IOETrn=   770 NScale= 10 NData=  16 NLR=1 NState=   10 LETran=     190.

 **********************************************************************

            Population analysis using the SCF density.

 **********************************************************************

 Orbital symmetries:
       Occupied  (A) (A) (A) (A) (A) (A) (A) (A) (A) (A) (A) (A)
                 (A) (A) (A) (A) (A) (A) (A) (A) (A) (A) (A) (A)
                 (A) (A) (A) (A) (A) (A) (A) (A) (A) (A) (A) (A)
                 (A) (A) (A) (A) (A) (A) (A) (A)
       Virtual   (A) (A) (A) (A) (A) (A) (A) (A) (A) (A) (A) (A)
                 (A) (A) (A) (A) (A) (A) (A) (A) (A) (A) (A) (A)
                 (A) (A) (A) (A) (A) (A) (A) (A) (A) (A) (A) (A)
                 (A) (A) (A) (A) (A) (A) (A) (A) (A) (A) (A) (A)
                 (A) (A) (A) (A) (A) (A) (A) (A) (A) (A) (A) (A)
                 (A) (A) (A) (A) (A) (A) (A) (A) (A) (A) (A) (A)
                 (A) (A) (A) (A) (A) (A) (A) (A) (A) (A) (A) (A)
                 (A) (A) (A) (A) (A) (A) (A) (A) (A) (A) (A) (A)
                 (A) (A) (A) (A) (A) (A) (A) (A) (A) (A) (A) (A)
                 (A) (A) (A) (A) (A) (A) (A) (A) (A) (A) (A) (A)
                 (A) (A) (A) (A) (A) (A) (A) (A) (A) (A) (A) (A)
                 (A) (A) (A) (A) (A) (A) (A) (A) (A) (A) (A) (A)
                 (A) (A) (A) (A) (A) (A) (A) (A) (A) (A) (A) (A)
 The electronic state is 1-A.
 Alpha  occ. eigenvalues --  -19.22516 -19.22454 -14.62544 -14.44969 -10.32953
 Alpha  occ. eigenvalues --  -10.29798 -10.29223 -10.28706 -10.28669 -10.27149
 Alpha  occ. eigenvalues --  -10.26622 -10.26617  -1.27522  -1.09806  -1.02561
 Alpha  occ. eigenvalues --   -0.92414  -0.90309  -0.86757  -0.81892  -0.76125
 Alpha  occ. eigenvalues --   -0.70033  -0.66541  -0.64669  -0.63152  -0.61334
 Alpha  occ. eigenvalues --   -0.59191  -0.58069  -0.57701  -0.55824  -0.52879
 Alpha  occ. eigenvalues --   -0.52697  -0.49191  -0.46650  -0.46164  -0.44891
 Alpha  occ. eigenvalues --   -0.44053  -0.42719  -0.41829  -0.37457  -0.34884
 Alpha  occ. eigenvalues --   -0.34179  -0.33028  -0.31153  -0.23593
 Alpha virt. eigenvalues --   -0.04660   0.02072   0.08376   0.10452   0.12280
 Alpha virt. eigenvalues --    0.13402   0.14752   0.15566   0.18121   0.18371
 Alpha virt. eigenvalues --    0.19320   0.19419   0.20645   0.23204   0.23577
 Alpha virt. eigenvalues --    0.27363   0.31812   0.33936   0.35706   0.37547
 Alpha virt. eigenvalues --    0.39599   0.41406   0.42764   0.45601   0.46200
 Alpha virt. eigenvalues --    0.49908   0.55100   0.56613   0.57891   0.58156
 Alpha virt. eigenvalues --    0.61514   0.61661   0.63175   0.63842   0.64211
 Alpha virt. eigenvalues --    0.65210   0.66454   0.66885   0.68592   0.70162
 Alpha virt. eigenvalues --    0.70265   0.71652   0.73686   0.75698   0.78053
 Alpha virt. eigenvalues --    0.80503   0.80901   0.82817   0.86121   0.87107
 Alpha virt. eigenvalues --    0.88586   0.90483   0.91658   0.91769   0.92218
 Alpha virt. eigenvalues --    0.93182   0.94020   0.94952   0.95328   0.96459
 Alpha virt. eigenvalues --    0.99764   1.01062   1.03432   1.06101   1.06711
 Alpha virt. eigenvalues --    1.08281   1.08303   1.09395   1.10726   1.13038
 Alpha virt. eigenvalues --    1.14411   1.15863   1.18957   1.24468   1.27010
 Alpha virt. eigenvalues --    1.31143   1.33679   1.36627   1.36889   1.37885
 Alpha virt. eigenvalues --    1.38300   1.39796   1.40503   1.44786   1.45094
 Alpha virt. eigenvalues --    1.48808   1.51213   1.54553   1.57055   1.58712
 Alpha virt. eigenvalues --    1.61680   1.69415   1.71824   1.76600   1.79854
 Alpha virt. eigenvalues --    1.85334   1.87247   1.87830   1.89473   1.90704
 Alpha virt. eigenvalues --    1.91031   1.94470   1.96531   1.98240   1.98768
 Alpha virt. eigenvalues --    2.01809   2.04160   2.04581   2.06327   2.10859
 Alpha virt. eigenvalues --    2.12143   2.14949   2.17178   2.20079   2.20665
 Alpha virt. eigenvalues --    2.24688   2.27600   2.29160   2.35934   2.36912
 Alpha virt. eigenvalues --    2.39186   2.41567   2.45481   2.47708   2.48477
 Alpha virt. eigenvalues --    2.53524   2.55558   2.56583   2.58289   2.60864
 Alpha virt. eigenvalues --    2.72611   2.75123   2.76886   2.91160   2.94202
 Alpha virt. eigenvalues --    2.94749   2.97690   2.99027   3.00843   3.02166
 Alpha virt. eigenvalues --    3.13283   3.14116   3.21540   3.23770   3.76259
 Alpha virt. eigenvalues --    3.83117   3.90121   3.95342   4.15373   4.16322
 Alpha virt. eigenvalues --    4.19060   4.24336   4.30861   4.40788   4.51591
 Alpha virt. eigenvalues --    4.60287
          Condensed to atoms (all electrons):
               1          2          3          4          5          6
     1  N    6.838339   0.334887  -0.038810   0.001863  -0.000102   0.000001
     2  C    0.334887   4.728493   0.607816  -0.005065   0.001882  -0.000229
     3  C   -0.038810   0.607816   4.901921   0.446729  -0.020909   0.002988
     4  C    0.001863  -0.005065   0.446729   4.817875   0.582751  -0.005223
     5  C   -0.000102   0.001882  -0.020909   0.582751   4.922969   0.428904
     6  C    0.000001  -0.000229   0.002988  -0.005223   0.428904   4.847056
     7  C   -0.000000   0.000003  -0.000198   0.002233  -0.021879   0.572381
     8  C    0.000000  -0.000000   0.000002  -0.000276   0.003100   0.001599
     9  C    0.000000  -0.000000  -0.000000   0.000003  -0.000175   0.000860
    10  N    0.000000   0.000000  -0.000000  -0.000000   0.000000  -0.000126
    11  O    0.000000   0.000000  -0.000000  -0.000000   0.000000   0.000000
    12  O    0.000000   0.000000  -0.000000   0.000000   0.000000  -0.000028
    13  H    0.328694  -0.024655   0.003077  -0.000085   0.000001  -0.000000
    14  H    0.323915  -0.027508  -0.004728   0.000059   0.000003  -0.000000
    15  H   -0.051937   0.375624  -0.041678  -0.006625   0.000298   0.000001
    16  H   -0.005519  -0.055429   0.369364  -0.040681  -0.006149   0.000280
    17  H    0.000141  -0.005551  -0.056399   0.368046  -0.051272  -0.007030
    18  H   -0.000001   0.000359  -0.006650  -0.051908   0.373507  -0.050837
    19  H   -0.000000  -0.000002   0.000309  -0.005310  -0.051225   0.368558
    20  H    0.000000  -0.000000  -0.000000   0.000359  -0.006209  -0.047843
    21  H    0.000000   0.000000  -0.000000  -0.000001   0.000252  -0.004535
    22  H   -0.000000   0.000000   0.000000  -0.000000   0.000000   0.000223
               7          8          9         10         11         12
     1  N   -0.000000   0.000000   0.000000   0.000000   0.000000   0.000000
     2  C    0.000003  -0.000000  -0.000000   0.000000   0.000000   0.000000
     3  C   -0.000198   0.000002  -0.000000  -0.000000  -0.000000  -0.000000
     4  C    0.002233  -0.000276   0.000003  -0.000000  -0.000000   0.000000
     5  C   -0.021879   0.003100  -0.000175   0.000000   0.000000   0.000000
     6  C    0.572381   0.001599   0.000860  -0.000126   0.000000  -0.000028
     7  C    4.965721   0.367920  -0.018121   0.001862  -0.000067   0.001334
     8  C    0.367920   4.977882   0.500926  -0.022568   0.008112   0.009643
     9  C   -0.018121   0.500926   5.128579   0.263988  -0.076833  -0.102440
    10  N    0.001862  -0.022568   0.263988   5.769445   0.279333   0.321910
    11  O   -0.000067   0.008112  -0.076833   0.279333   8.282581  -0.088509
    12  O    0.001334   0.009643  -0.102440   0.321910  -0.088509   8.256037
    13  H    0.000000  -0.000000   0.000000   0.000000   0.000000   0.000000
    14  H    0.000000   0.000000  -0.000000   0.000000   0.000000   0.000000
    15  H   -0.000000   0.000000   0.000000  -0.000000   0.000000  -0.000000
    16  H   -0.000000  -0.000000   0.000000   0.000000  -0.000000   0.000000
    17  H    0.000435  -0.000005  -0.000000   0.000000   0.000000   0.000000
    18  H   -0.005114   0.000316  -0.000001  -0.000000   0.000000  -0.000000
    19  H   -0.053900  -0.005197   0.000484  -0.000004  -0.000000  -0.000005
    20  H    0.374515  -0.051136  -0.002901   0.000047  -0.000001   0.000003
    21  H   -0.040098   0.356597  -0.038496  -0.008376   0.000318   0.018299
    22  H   -0.003009  -0.046635   0.373883  -0.035898   0.004378   0.003499
              13         14         15         16         17         18
     1  N    0.328694   0.323915  -0.051937  -0.005519   0.000141  -0.000001
     2  C   -0.024655  -0.027508   0.375624  -0.055429  -0.005551   0.000359
     3  C    0.003077  -0.004728  -0.041678   0.369364  -0.056399  -0.006650
     4  C   -0.000085   0.000059  -0.006625  -0.040681   0.368046  -0.051908
     5  C    0.000001   0.000003   0.000298  -0.006149  -0.051272   0.373507
     6  C   -0.000000  -0.000000   0.000001   0.000280  -0.007030  -0.050837
     7  C    0.000000   0.000000  -0.000000  -0.000000   0.000435  -0.005114
     8  C   -0.000000   0.000000   0.000000  -0.000000  -0.000005   0.000316
     9  C    0.000000  -0.000000   0.000000   0.000000  -0.000000  -0.000001
    10  N    0.000000   0.000000  -0.000000   0.000000   0.000000  -0.000000
    11  O    0.000000   0.000000   0.000000  -0.000000   0.000000   0.000000
    12  O    0.000000   0.000000  -0.000000   0.000000   0.000000  -0.000000
    13  H    0.380735  -0.026805  -0.004965  -0.000033   0.000003   0.000000
    14  H   -0.026805   0.383088   0.004883   0.004614   0.000014   0.000001
    15  H   -0.004965   0.004883   0.555555   0.005106   0.005300   0.000010
    16  H   -0.000033   0.004614   0.005106   0.596877   0.004955   0.004029
    17  H    0.000003   0.000014   0.005300   0.004955   0.599306   0.005511
    18  H    0.000000   0.000001   0.000010   0.004029   0.005511   0.593770
    19  H    0.000000  -0.000000   0.000002   0.000008   0.005149   0.004863
    20  H    0.000000  -0.000000  -0.000000   0.000001   0.000011   0.004094
    21  H   -0.000000   0.000000  -0.000000  -0.000000   0.000001   0.000007
    22  H   -0.000000   0.000000   0.000000  -0.000000  -0.000000   0.000001
              19         20         21         22
     1  N   -0.000000   0.000000   0.000000  -0.000000
     2  C   -0.000002  -0.000000   0.000000   0.000000
     3  C    0.000309  -0.000000  -0.000000   0.000000
     4  C   -0.005310   0.000359  -0.000001  -0.000000
     5  C   -0.051225  -0.006209   0.000252   0.000000
     6  C    0.368558  -0.047843  -0.004535   0.000223
     7  C   -0.053900   0.374515  -0.040098  -0.003009
     8  C   -0.005197  -0.051136   0.356597  -0.046635
     9  C    0.000484  -0.002901  -0.038496   0.373883
    10  N   -0.000004   0.000047  -0.008376  -0.035898
    11  O   -0.000000  -0.000001   0.000318   0.004378
    12  O   -0.000005   0.000003   0.018299   0.003499
    13  H    0.000000   0.000000  -0.000000  -0.000000
    14  H   -0.000000  -0.000000   0.000000   0.000000
    15  H    0.000002  -0.000000  -0.000000   0.000000
    16  H    0.000008   0.000001  -0.000000  -0.000000
    17  H    0.005149   0.000011   0.000001  -0.000000
    18  H    0.004863   0.004094   0.000007   0.000001
    19  H    0.586718   0.005282   0.004391   0.000010
    20  H    0.005282   0.580531   0.004012   0.002982
    21  H    0.004391   0.004012   0.515663   0.004105
    22  H    0.000010   0.002982   0.004105   0.522224
 Mulliken charges:
               1
     1  N   -0.731470
     2  C    0.069375
     3  C   -0.162835
     4  C   -0.104744
     5  C   -0.155748
     6  C   -0.106997
     7  C   -0.144017
     8  C   -0.100280
     9  C   -0.029757
    10  N    0.430388
    11  O   -0.409312
    12  O   -0.419743
    13  H    0.344031
    14  H    0.342463
    15  H    0.158425
    16  H    0.122579
    17  H    0.131382
    18  H    0.128043
    19  H    0.139869
    20  H    0.136251
    21  H    0.187860
    22  H    0.174236
 Sum of Mulliken charges =  -0.00000
 Mulliken charges with hydrogens summed into heavy atoms:
               1
     1  N   -0.044975
     2  C    0.227801
     3  C   -0.040256
     4  C    0.026638
     5  C   -0.027705
     6  C    0.032872
     7  C   -0.007766
     8  C    0.087579
     9  C    0.144480
    10  N    0.430388
    11  O   -0.409312
    12  O   -0.419743
 Electronic spatial extent (au):  <R**2>=           5487.6034
 Charge=             -0.0000 electrons
 Dipole moment (field-independent basis, Debye):
    X=             11.7196    Y=             -0.8240    Z=              0.8065  Tot=             11.7761
 Quadrupole moment (field-independent basis, Debye-Ang):
   XX=            -67.1365   YY=            -64.7693   ZZ=            -73.9461
   XY=              6.9069   XZ=              5.9091   YZ=              0.1208
 Traceless Quadrupole moment (field-independent basis, Debye-Ang):
   XX=              1.4808   YY=              3.8480   ZZ=             -5.3288
   XY=              6.9069   XZ=              5.9091   YZ=              0.1208
 Octapole moment (field-independent basis, Debye-Ang**2):
  XXX=            520.8785  YYY=             -3.0000  ZZZ=              0.6753  XYY=             25.5552
  XXY=             -8.8065  XXZ=             42.3840  XZZ=            -24.7840  YZZ=              2.6914
  YYZ=              0.5292  XYZ=              1.0105
 Hexadecapole moment (field-independent basis, Debye-Ang**3):
 XXXX=          -5640.7446 YYYY=           -239.9536 ZZZZ=            -71.2535 XXXY=            103.7085
 XXXZ=            306.0062 YYYX=             16.0802 YYYZ=              0.0028 ZZZX=              4.7582
 ZZZY=              0.1000 XXYY=          -1061.2724 XXZZ=          -1163.9497 YYZZ=            -56.0257
 XXYZ=              8.2482 YYXZ=              3.7413 ZZXY=             -5.9559
 N-N= 5.773265668935D+02 E-N=-2.483417043989D+03  KE= 5.651573933840D+02

 Test job not archived.
 1\1\GINC-LOCALHOST\SP\RCAM-B3LYP TD-FC\6-31G(d)\C8H10N2O2\ROOT\29-Oct-
 2018\0\\# CAM-B3LYP/6-31G* IOp(9/40=4) TD(nstates=10)\\b3lyp/6-31g(d) 
 opted\\0,1\N,0,6.504051,0.057867,-0.057062\C,0,5.204529,0.486239,0.004
 161\C,0,4.097158,-0.304553,0.003196\C,0,2.771955,0.231029,-0.002702\C,
 0,1.618228,-0.499451,-0.000863\C,0,0.317437,0.089687,-0.001855\C,0,-0.
 862617,-0.598288,-0.000544\C,0,-2.134527,0.053497,-0.000987\C,0,-3.324
 956,-0.587207,0.000964\N,0,-4.562783,0.141204,0.001055\O,0,-5.598377,-
 0.538558,0.002994\O,0,-4.540476,1.379297,-0.000613\H,0,7.231698,0.6874
 43,0.248256\H,0,6.695157,-0.919959,0.117597\H,0,5.09475,1.568867,0.003
 894\H,0,4.214496,-1.388185,0.003525\H,0,2.68547,1.319321,-0.006683\H,0
 ,1.679941,-1.587727,0.000933\H,0,0.272577,1.180141,-0.003827\H,0,-0.84
 3455,-1.68754,0.001153\H,0,-2.159898,1.141066,-0.002745\H,0,-3.472031,
 -1.658554,0.002682\\Version=ES64L-G16RevA.03\State=1-A\HF=-570.3771917
 \RMSD=3.511e-09\PG=C01 [X(C8H10N2O2)]\\@


 IT MATTERS NOT HOW DEEP YOU PLOW,
 BUT HOW LONG YOU STAY IN THE FURROW.
 Job cpu time:       0 days  0 hours 16 minutes 18.2 seconds.
 Elapsed time:       0 days  0 hours  0 minutes 27.5 seconds.
 File lengths (MBytes):  RWF=    379 Int=      0 D2E=      0 Chk=     18 Scr=      1
 Normal termination of Gaussian 16 at Mon Oct 29 23:37:16 2018.
