 Default is to use a total of   4 processors:
                                4 via shared-memory
                                1 via Linda
 Entering Link 1 = d:\study\G09W\l1.exe PID=      3196.
  
 Copyright (c) 1988,1990,1992,1993,1995,1998,2003,2009,2013,
            Gaussian, Inc.  All Rights Reserved.
  
 This is part of the Gaussian(R) 09 program.  It is based on
 the Gaussian(R) 03 system (copyright 2003, Gaussian, Inc.),
 the Gaussian(R) 98 system (copyright 1998, Gaussian, Inc.),
 the Gaussian(R) 94 system (copyright 1995, Gaussian, Inc.),
 the Gaussian 92(TM) system (copyright 1992, Gaussian, Inc.),
 the Gaussian 90(TM) system (copyright 1990, Gaussian, Inc.),
 the Gaussian 88(TM) system (copyright 1988, Gaussian, Inc.),
 the Gaussian 86(TM) system (copyright 1986, Carnegie Mellon
 University), and the Gaussian 82(TM) system (copyright 1983,
 Carnegie Mellon University). Gaussian is a federally registered
 trademark of Gaussian, Inc.
  
 This software contains proprietary and confidential information,
 including trade secrets, belonging to Gaussian, Inc.
  
 This software is provided under written license and may be
 used, copied, transmitted, or stored only in accord with that
 written license.
  
 The following legend is applicable only to US Government
 contracts under FAR:
  
                    RESTRICTED RIGHTS LEGEND
  
 Use, reproduction and disclosure by the US Government is
 subject to restrictions as set forth in subparagraphs (a)
 and (c) of the Commercial Computer Software - Restricted
 Rights clause in FAR 52.227-19.
  
 Gaussian, Inc.
 340 Quinnipiac St., Bldg. 40, Wallingford CT 06492
  
  
 ---------------------------------------------------------------
 Warning -- This program may not be used in any manner that
 competes with the business of Gaussian, Inc. or will provide
 assistance to any competitor of Gaussian, Inc.  The licensee
 of this program is prohibited from giving any competitor of
 Gaussian, Inc. access to this program.  By using this program,
 the user acknowledges that Gaussian, Inc. is engaged in the
 business of creating and licensing software in the field of
 computational chemistry and represents and warrants to the
 licensee that it is not a competitor of Gaussian, Inc. and that
 it will not use this program in any manner prohibited above.
 ---------------------------------------------------------------
  

 Cite this work as:
 Gaussian 09, Revision D.01,
 M. J. Frisch, G. W. Trucks, H. B. Schlegel, G. E. Scuseria, 
 M. A. Robb, J. R. Cheeseman, G. Scalmani, V. Barone, B. Mennucci, 
 G. A. Petersson, H. Nakatsuji, M. Caricato, X. Li, H. P. Hratchian, 
 A. F. Izmaylov, J. Bloino, G. Zheng, J. L. Sonnenberg, M. Hada, 
 M. Ehara, K. Toyota, R. Fukuda, J. Hasegawa, M. Ishida, T. Nakajima, 
 Y. Honda, O. Kitao, H. Nakai, T. Vreven, J. A. Montgomery, Jr., 
 J. E. Peralta, F. Ogliaro, M. Bearpark, J. J. Heyd, E. Brothers, 
 K. N. Kudin, V. N. Staroverov, T. Keith, R. Kobayashi, J. Normand, 
 K. Raghavachari, A. Rendell, J. C. Burant, S. S. Iyengar, J. Tomasi, 
 M. Cossi, N. Rega, J. M. Millam, M. Klene, J. E. Knox, J. B. Cross, 
 V. Bakken, C. Adamo, J. Jaramillo, R. Gomperts, R. E. Stratmann, 
 O. Yazyev, A. J. Austin, R. Cammi, C. Pomelli, J. W. Ochterski, 
 R. L. Martin, K. Morokuma, V. G. Zakrzewski, G. A. Voth, 
 P. Salvador, J. J. Dannenberg, S. Dapprich, A. D. Daniels, 
 O. Farkas, J. B. Foresman, J. V. Ortiz, J. Cioslowski, 
 and D. J. Fox, Gaussian, Inc., Wallingford CT, 2013.
 
 ******************************************
 Gaussian 09:  IA32W-G09RevD.01 24-Apr-2013
                15-Dec-2017 
 ******************************************
 %chk=C:\4-Nitroaniline.chk
 --------------------------------
 # PBE1PBE/6-311G* TD IOp(9/40=4)
 --------------------------------
 1/38=1/1;
 2/12=2,17=6,18=5,40=1/2;
 3/5=4,6=6,7=1,11=9,16=1,25=1,30=1,74=-13/1,2,8,3;
 4//1;
 5/5=2,38=5/2;
 8/6=1,10=2/1;
 9/40=4,42=1,70=2/14;
 6/7=2,8=2,9=2,10=2/1;
 99/5=1,9=1/99;
 ---------------------
 PBE1PBE/6-311G* opted
 ---------------------
 Symbolic Z-matrix:
 Charge =  0 Multiplicity = 1
 C                     0.00328  -0.0227    1.20895 
 C                     0.00328   1.35685   1.20847 
 C                     0.00222   2.07441   0. 
 C                     0.00328   1.35685  -1.20847 
 C                     0.00328  -0.0227   -1.20895 
 C                     0.00296  -0.70805   0. 
 H                     0.0023   -0.58421   2.13494 
 H                     0.00833   1.89494   2.15208 
 H                     0.00833   1.89494  -2.15208 
 H                     0.0023   -0.58421  -2.13494 
 N                     0.04776   3.44379   0. 
 H                    -0.21409   3.92172   0.84497 
 H                    -0.21409   3.92172  -0.84497 
 N                    -0.00059  -2.16235   0. 
 O                    -0.00207  -2.72769  -1.07769 
 O                    -0.00207  -2.72769   1.07769 
 
                          Input orientation:                          
 ---------------------------------------------------------------------
 Center     Atomic      Atomic             Coordinates (Angstroms)
 Number     Number       Type             X           Y           Z
 ---------------------------------------------------------------------
      1          6           0        0.003279   -0.022698    1.208952
      2          6           0        0.003279    1.356850    1.208468
      3          6           0        0.002220    2.074407    0.000000
      4          6           0        0.003279    1.356850   -1.208468
      5          6           0        0.003279   -0.022698   -1.208952
      6          6           0        0.002956   -0.708053    0.000000
      7          1           0        0.002297   -0.584212    2.134941
      8          1           0        0.008330    1.894941    2.152080
      9          1           0        0.008330    1.894941   -2.152080
     10          1           0        0.002297   -0.584212   -2.134941
     11          7           0        0.047761    3.443794    0.000000
     12          1           0       -0.214094    3.921723    0.844971
     13          1           0       -0.214094    3.921723   -0.844971
     14          7           0       -0.000588   -2.162345    0.000000
     15          8           0       -0.002065   -2.727687   -1.077690
     16          8           0       -0.002065   -2.727687    1.077690
 ---------------------------------------------------------------------
                    Distance matrix (angstroms):
                    1          2          3          4          5
     1  C    0.000000
     2  C    1.379548   0.000000
     3  C    2.420623   1.405448   0.000000
     4  C    2.783356   2.416936   1.405448   0.000000
     5  C    2.417904   2.783356   2.420623   1.379548   0.000000
     6  C    1.389704   2.392534   2.782460   2.392534   1.389704
     7  H    1.082938   2.150831   3.409726   3.866019   3.390711
     8  H    2.137020   1.086265   2.159559   3.403359   3.869613
     9  H    3.869613   3.403359   2.159559   1.086265   2.137020
    10  H    3.390711   3.866019   3.409726   2.150831   1.082938
    11  N    3.671527   2.411993   1.370144   2.411993   3.671527
    12  H    3.967139   2.599607   2.042876   3.292785   4.452450
    13  H    4.452450   3.292785   2.042876   2.599607   3.967139
    14  N    2.457574   3.720906   4.236753   3.720906   2.457574
    15  O    3.541995   4.680811   4.921538   4.086634   2.708177
    16  O    2.708177   4.086634   4.921538   4.680811   3.541995
                    6          7          8          9         10
     6  C    0.000000
     7  H    2.138530   0.000000
     8  H    3.377433   2.479220   0.000000
     9  H    3.377433   4.952251   4.304160   0.000000
    10  H    2.138530   4.269882   4.952251   2.479220   0.000000
    11  N    4.152089   4.559043   2.651782   2.651782   4.559043
    12  H    4.711254   4.691940   2.421952   3.624863   5.406492
    13  H    4.711254   5.406492   3.624863   2.421952   4.691940
    14  N    1.454296   2.654898   4.592722   4.592722   2.654898
    15  O    2.289184   3.862059   5.639168   4.745852   2.390038
    16  O    2.289184   2.390038   4.745852   5.639168   3.862059
                   11         12         13         14         15
    11  N    0.000000
    12  H    1.005465   0.000000
    13  H    1.005465   1.689942   0.000000
    14  N    5.606347   6.146173   6.146173   0.000000
    15  O    6.265068   6.925044   6.656859   1.216976   0.000000
    16  O    6.265068   6.656859   6.925044   1.216976   2.155380
                   16
    16  O    0.000000
 Stoichiometry    C6H6N2O2
 Framework group  CS[SG(C2N2),X(C4H6O2)]
 Deg. of freedom    23
 Full point group                 CS      NOp   2
 Largest Abelian subgroup         CS      NOp   2
 Largest concise Abelian subgroup CS      NOp   2
                         Standard orientation:                         
 ---------------------------------------------------------------------
 Center     Atomic      Atomic             Coordinates (Angstroms)
 Number     Number       Type             X           Y           Z
 ---------------------------------------------------------------------
      1          6           0       -0.003279    0.022698    1.208952
      2          6           0       -0.003279   -1.356850    1.208468
      3          6           0       -0.002220   -2.074407    0.000000
      4          6           0       -0.003279   -1.356850   -1.208468
      5          6           0       -0.003279    0.022698   -1.208952
      6          6           0       -0.002956    0.708053    0.000000
      7          1           0       -0.002297    0.584212    2.134941
      8          1           0       -0.008330   -1.894941    2.152080
      9          1           0       -0.008330   -1.894941   -2.152080
     10          1           0       -0.002297    0.584212   -2.134941
     11          7           0       -0.047761   -3.443794    0.000000
     12          1           0        0.214094   -3.921723    0.844971
     13          1           0        0.214094   -3.921723   -0.844971
     14          7           0        0.000588    2.162345    0.000000
     15          8           0        0.002065    2.727687   -1.077690
     16          8           0        0.002065    2.727687    1.077690
 ---------------------------------------------------------------------
 Rotational constants (GHZ):      3.9679651      0.8289169      0.6859053
 Standard basis: 6-311G(d) (5D, 7F)
 There are   122 symmetry adapted cartesian basis functions of A'  symmetry.
 There are    86 symmetry adapted cartesian basis functions of A"  symmetry.
 There are   115 symmetry adapted basis functions of A'  symmetry.
 There are    83 symmetry adapted basis functions of A"  symmetry.
   198 basis functions,   350 primitive gaussians,   208 cartesian basis functions
    36 alpha electrons       36 beta electrons
       nuclear repulsion energy       497.5995431410 Hartrees.
 NAtoms=   16 NActive=   16 NUniq=   10 SFac= 2.56D+00 NAtFMM=   60 NAOKFM=F Big=F
 Integral buffers will be    262144 words long.
 Regular integral format.
 Two-electron integral symmetry is turned on.
 One-electron integrals computed using PRISM.
 NBasis=   198 RedAO= T EigKep=  1.66D-04  NBF=   115    83
 NBsUse=   198 1.00D-06 EigRej= -1.00D+00 NBFU=   115    83
 ExpMin= 1.03D-01 ExpMax= 8.59D+03 ExpMxC= 1.30D+03 IAcc=1 IRadAn=         1 AccDes= 0.00D+00
 Harris functional with IExCor= 1009 and IRadAn=       1 diagonalized for initial guess.
 HarFok:  IExCor= 1009 AccDes= 0.00D+00 IRadAn=         1 IDoV= 1 UseB2=F ITyADJ=14
 ICtDFT=  3500011 ScaDFX=  1.000000  1.000000  1.000000  1.000000
 FoFCou: FMM=F IPFlag=           0 FMFlag=      100000 FMFlg1=           0
         NFxFlg=           0 DoJE=T BraDBF=F KetDBF=T FulRan=T
         wScrn=  0.000000 ICntrl=     500 IOpCl=  0 I1Cent=   200000004 NGrid=           0
         NMat0=    1 NMatS0=      1 NMatT0=    0 NMatD0=    1 NMtDS0=    0 NMtDT0=    0
 Petite list used in FoFCou.
 Initial guess orbital symmetries:
       Occupied  (A") (A') (A') (A') (A") (A') (A") (A') (A') (A')
                 (A') (A") (A') (A') (A") (A') (A') (A") (A') (A')
                 (A") (A') (A") (A') (A") (A") (A') (A') (A') (A")
                 (A') (A") (A") (A') (A") (A')
       Virtual   (A') (A") (A') (A') (A') (A") (A') (A') (A") (A")
                 (A') (A') (A") (A') (A") (A') (A') (A") (A') (A')
                 (A") (A') (A') (A") (A') (A") (A") (A') (A') (A')
                 (A") (A") (A') (A") (A") (A") (A') (A') (A') (A')
                 (A') (A') (A') (A') (A") (A') (A") (A") (A') (A')
                 (A") (A') (A") (A") (A') (A") (A') (A") (A') (A")
                 (A') (A") (A') (A") (A') (A") (A') (A') (A") (A')
                 (A') (A") (A") (A') (A') (A') (A") (A') (A") (A')
                 (A") (A") (A") (A') (A') (A") (A") (A') (A') (A')
                 (A") (A') (A") (A") (A') (A') (A') (A") (A') (A")
                 (A') (A") (A") (A') (A') (A') (A") (A') (A") (A')
                 (A') (A') (A") (A") (A') (A") (A') (A") (A') (A')
                 (A") (A") (A') (A') (A") (A') (A') (A") (A") (A')
                 (A") (A') (A") (A') (A') (A') (A") (A') (A') (A')
                 (A") (A") (A") (A') (A') (A") (A") (A') (A") (A')
                 (A') (A") (A') (A") (A') (A') (A") (A') (A') (A')
                 (A') (A")
 The electronic state of the initial guess is 1-A'.
 Requested convergence on RMS density matrix=1.00D-08 within 128 cycles.
 Requested convergence on MAX density matrix=1.00D-06.
 Requested convergence on             energy=1.00D-06.
 No special actions if energy rises.
 Integral accuracy reduced to 1.0D-05 until final iterations.
 Initial convergence to 1.0D-05 achieved.  Increase integral accuracy.
 SCF Done:  E(RPBE1PBE) =  -491.674779396     A.U. after   14 cycles
            NFock= 14  Conv=0.60D-08     -V/T= 2.0029
 DoSCS=F DFT=T ScalE2(SS,OS)=  1.000000  1.000000
 ExpMin= 1.03D-01 ExpMax= 8.59D+03 ExpMxC= 1.30D+03 IAcc=3 IRadAn=         5 AccDes= 0.00D+00
 HarFok:  IExCor=  205 AccDes= 0.00D+00 IRadAn=         5 IDoV=-2 UseB2=F ITyADJ=14
 ICtDFT= 12500011 ScaDFX=  1.000000  1.000000  1.000000  1.000000
 Range of M.O.s used for correlation:    11   198
 NBasis=   198 NAE=    36 NBE=    36 NFC=    10 NFV=     0
 NROrb=    188 NOA=    26 NOB=    26 NVA=   162 NVB=   162

 **** Warning!!: The largest alpha MO coefficient is  0.17892239D+02

 Would need an additional           205100000 words for in-memory AO integral storage.
 Orbital symmetries:
       Occupied  (A") (A') (A') (A') (A') (A') (A") (A') (A") (A')
                 (A') (A") (A') (A') (A') (A") (A') (A") (A') (A')
                 (A") (A') (A') (A") (A') (A") (A") (A') (A') (A")
                 (A') (A") (A') (A") (A") (A')
       Virtual   (A') (A") (A') (A') (A') (A") (A") (A') (A") (A')
                 (A') (A') (A') (A") (A') (A") (A') (A") (A') (A')
                 (A") (A') (A') (A") (A') (A") (A') (A") (A') (A')
                 (A") (A') (A") (A") (A") (A') (A") (A') (A') (A')
                 (A') (A') (A') (A') (A") (A') (A") (A") (A') (A')
                 (A") (A') (A") (A") (A') (A") (A') (A") (A') (A")
                 (A") (A') (A') (A') (A") (A") (A') (A") (A') (A')
                 (A') (A") (A') (A") (A') (A') (A") (A') (A") (A")
                 (A') (A") (A") (A') (A') (A") (A") (A') (A') (A')
                 (A") (A') (A") (A") (A') (A') (A') (A') (A") (A")
                 (A') (A") (A') (A") (A') (A") (A') (A') (A') (A")
                 (A') (A') (A") (A") (A') (A') (A") (A") (A') (A')
                 (A") (A') (A") (A') (A") (A') (A") (A') (A") (A')
                 (A") (A') (A") (A') (A") (A') (A') (A') (A') (A')
                 (A") (A") (A") (A') (A') (A") (A") (A') (A") (A')
                 (A') (A") (A') (A") (A') (A') (A") (A') (A') (A')
                 (A') (A")
    12 initial guesses have been made.
 Convergence on wavefunction:    0.001000000000000
 Iteration     1 Dimension    12 NMult     0 NNew     12
 CISAX will form    12 AO SS matrices at one time.
 New state      1 was old state      4
 New state      2 was old state      1
 New state      3 was old state      5
 Iteration     2 Dimension    18 NMult    12 NNew      6
 Iteration     3 Dimension    24 NMult    18 NNew      6
 Iteration     4 Dimension    30 NMult    24 NNew      6
 Iteration     5 Dimension    34 NMult    30 NNew      4
 ***********************************************************************
 Excited states from <AA,BB:AA,BB> singles matrix:
 ***********************************************************************
 
 Ground to excited state transition densities written to RWF  633
 Ground to excited state transition electric dipole moments (Au):
       state          X           Y           Z        Dip. S.      Osc.
         1         0.0000      0.0000      0.0002      0.0000      0.0000
         2        -0.0149     -1.7940      0.0000      3.2187      0.3372
         3         0.0294      0.0155      0.0000      0.0011      0.0001
 Ground to excited state transition velocity dipole moments (Au):
       state          X           Y           Z        Dip. S.      Osc.
         1         0.0000      0.0000     -0.0001      0.0000      0.0000
         2         0.0005      0.2775      0.0000      0.0770      0.3267
         3        -0.0008     -0.0025      0.0000      0.0000      0.0000
 Ground to excited state transition magnetic dipole moments (Au):
       state          X           Y           Z
         1        -0.0005     -0.6038      0.0000
         2         0.0000      0.0000      0.0142
         3         0.0000      0.0000      1.0441
 Ground to excited state transition velocity quadrupole moments (Au):
       state          XX          YY          ZZ          XY          XZ          YZ
         1         0.0000      0.0000      0.0000      0.0000     -0.0332      0.0010
         2        -0.0184     -0.2098      0.0227     -0.0044      0.0000      0.0000
         3         0.0000      0.0009     -0.0003     -0.0632      0.0000      0.0000
 <0|del|b> * <b|rxdel|0> + <0|del|b> * <b|delr+rdel|0>
 Rotatory Strengths (R) in cgs (10**-40 erg-esu-cm/Gauss)
       state          XX          YY          ZZ    R(velocity)    E-M Angle
         1         0.0000      0.0000      0.0000      0.0000       90.00
         2         0.0000      0.0000      0.0000      0.0000       90.00
         3         0.0000      0.0000      0.0000      0.0000       90.00
 1/2[<0|r|b>*<b|rxdel|0> + (<0|rxdel|b>*<b|r|0>)*]
 Rotatory Strengths (R) in cgs (10**-40 erg-esu-cm/Gauss)
       state          XX          YY          ZZ     R(length)
         1         0.0000      0.0000      0.0000      0.0000
         2         0.0000      0.0000      0.0000      0.0000
         3         0.0000      0.0000      0.0000      0.0000
  1/2[<0|del|b>*<b|r|0> + (<0|r|b>*<b|del|0>)*] (Au)
       state          X           Y           Z        Dip. S.   Osc.(frdel)
         1         0.0000      0.0000      0.0000      0.0000      0.0000
         2         0.0000     -0.4979      0.0000      0.4979      0.3319
         3         0.0000      0.0000      0.0000      0.0001      0.0000

 Excitation energies and oscillator strengths:
 
 Excited State   1:      Singlet-A"     4.0557 eV  305.71 nm  f=0.0000  <S**2>=0.000
      11 -> 38         0.00017
      11 -> 89         0.00018
      11 ->115        -0.00012
      11 ->116        -0.00018
      11 ->123        -0.00010
      11 ->146        -0.00019
      11 ->149         0.00136
      11 ->150         0.00042
      11 ->153         0.00047
      11 ->183         0.00012
      12 -> 37         0.00237
      12 -> 39        -0.00203
      12 -> 40         0.00107
      12 -> 41         0.00016
      12 -> 46        -0.00113
      12 -> 56         0.00014
      12 -> 63         0.00043
      12 -> 68        -0.00024
      12 -> 72         0.00011
      12 -> 74         0.00016
      12 -> 75         0.00026
      12 -> 91        -0.00062
      12 -> 98         0.00012
      12 -> 99        -0.00011
      12 ->100        -0.00044
      12 ->103        -0.00013
      12 ->105         0.00053
      12 ->114         0.00052
      12 ->121         0.00057
      12 ->124        -0.00016
      12 ->131        -0.00074
      12 ->132         0.00070
      12 ->143        -0.00030
      12 ->145        -0.00016
      12 ->147         0.00048
      12 ->148        -0.00032
      12 ->151        -0.00124
      12 ->152        -0.00063
      12 ->158        -0.00059
      12 ->174        -0.00012
      13 -> 38         0.00011
      14 -> 38         0.00019
      14 -> 62         0.00013
      14 -> 67        -0.00026
      14 -> 87        -0.00012
      14 -> 89        -0.00032
      14 -> 90         0.00012
      14 -> 94         0.00011
      14 ->115         0.00021
      14 ->116         0.00030
      14 ->123         0.00016
      14 ->149        -0.00041
      14 ->150        -0.00013
      14 ->153        -0.00017
      15 -> 38        -0.00055
      15 -> 67        -0.00012
      15 -> 83         0.00010
      15 -> 87        -0.00020
      15 -> 89        -0.00060
      15 -> 90         0.00023
      15 -> 94         0.00022
      15 ->115         0.00039
      15 ->116         0.00054
      15 ->118        -0.00016
      15 ->123         0.00025
      15 ->149        -0.00075
      15 ->150        -0.00023
      15 ->153        -0.00026
      15 ->183        -0.00014
      16 -> 37         0.00103
      16 -> 39        -0.00049
      16 -> 40         0.00023
      16 -> 56        -0.00014
      16 -> 63        -0.00018
      16 -> 91        -0.00017
      17 -> 38        -0.00028
      17 -> 87        -0.00015
      17 -> 89        -0.00043
      17 -> 90         0.00015
      17 ->115         0.00031
      17 ->116         0.00043
      17 ->123         0.00014
      17 ->146         0.00013
      17 ->149        -0.00087
      17 ->150        -0.00026
      17 ->153        -0.00028
      18 -> 37         0.00244
      18 -> 39        -0.00194
      18 -> 40         0.00104
      18 -> 41         0.00017
      18 -> 46        -0.00123
      18 -> 56        -0.00012
      18 -> 68         0.00011
      18 -> 91        -0.00039
      18 ->100        -0.00015
      18 ->151        -0.00013
      19 -> 38         0.00048
      19 -> 89         0.00029
      19 -> 90        -0.00012
      19 -> 94        -0.00021
      19 ->104        -0.00010
      19 ->115        -0.00010
      19 ->116        -0.00014
      19 ->146         0.00011
      19 ->149        -0.00085
      19 ->150        -0.00026
      19 ->153        -0.00030
      20 -> 38        -0.00039
      20 -> 62         0.00039
      20 -> 67        -0.00076
      20 -> 69         0.00014
      20 -> 70        -0.00021
      20 -> 83         0.00040
      20 -> 87        -0.00067
      20 -> 89        -0.00191
      20 -> 90         0.00068
      20 -> 92         0.00021
      20 -> 94         0.00026
      20 ->101         0.00023
      20 ->102         0.00011
      20 ->104        -0.00016
      20 ->115         0.00083
      20 ->116         0.00116
      20 ->118        -0.00038
      20 ->123         0.00047
      20 ->129        -0.00011
      20 ->149         0.00082
      20 ->150         0.00026
      20 ->153         0.00032
      20 ->167         0.00012
      20 ->183        -0.00043
      21 -> 37         0.00347
      21 -> 39        -0.00333
      21 -> 40         0.00173
      21 -> 41         0.00024
      21 -> 44        -0.00014
      21 -> 46        -0.00155
      21 -> 68         0.00024
      21 -> 72        -0.00012
      21 -> 74        -0.00012
      21 -> 79        -0.00012
      21 -> 91        -0.00038
      21 ->100        -0.00016
      21 ->125        -0.00010
      21 ->131        -0.00011
      21 ->151        -0.00023
      21 ->158        -0.00021
      22 -> 38        -0.00058
      22 -> 62        -0.00039
      22 -> 67         0.00086
      22 -> 69        -0.00016
      22 -> 70         0.00023
      22 -> 83        -0.00045
      22 -> 87         0.00076
      22 -> 89         0.00209
      22 -> 90        -0.00075
      22 -> 92        -0.00022
      22 -> 94        -0.00018
      22 ->101        -0.00016
      22 ->102        -0.00013
      22 ->104         0.00015
      22 ->115        -0.00098
      22 ->116        -0.00137
      22 ->118         0.00028
      22 ->123        -0.00049
      22 ->129         0.00010
      22 ->149        -0.00078
      22 ->150        -0.00026
      22 ->153        -0.00034
      22 ->167        -0.00014
      22 ->183         0.00047
      23 -> 42        -0.00025
      23 -> 43        -0.00057
      23 -> 45         0.00097
      23 -> 52        -0.00043
      23 -> 54         0.00047
      23 -> 57        -0.00027
      23 -> 60         0.00026
      23 -> 62        -0.00025
      23 -> 64        -0.00064
      23 -> 69        -0.00022
      23 -> 70         0.00020
      23 -> 71        -0.00014
      23 -> 84        -0.00045
      23 -> 87        -0.00048
      23 -> 89         0.00034
      23 -> 90         0.00044
      23 -> 92        -0.00030
      23 -> 96         0.00010
      23 -> 97        -0.00062
      23 ->115         0.00012
      23 ->116        -0.00014
      23 ->127         0.00011
      23 ->130         0.00011
      23 ->185         0.00018
      24 -> 37         0.00106
      24 -> 39        -0.00102
      24 -> 40         0.00053
      24 -> 46        -0.00027
      24 -> 68         0.00010
      24 -> 75        -0.00013
      24 -> 79        -0.00020
      24 -> 91         0.00031
      24 -> 98         0.00014
      24 ->131        -0.00019
      24 ->132         0.00019
      24 ->143        -0.00020
      24 ->145        -0.00012
      24 ->147         0.00037
      24 ->148        -0.00025
      24 ->151        -0.00090
      24 ->152        -0.00042
      24 ->156         0.00014
      24 ->158        -0.00085
      25 -> 38         0.00032
      25 -> 62        -0.00021
      25 -> 67         0.00041
      25 -> 70         0.00011
      25 -> 83        -0.00019
      25 -> 87         0.00030
      25 -> 89         0.00081
      25 -> 90        -0.00027
      25 ->101        -0.00018
      25 ->115        -0.00033
      25 ->116        -0.00046
      25 ->118         0.00016
      25 ->123        -0.00018
      25 ->149         0.00015
      25 ->183         0.00017
      26 -> 37         0.00754
      26 -> 39        -0.00592
      26 -> 40         0.00304
      26 -> 41         0.00041
      26 -> 44        -0.00019
      26 -> 46        -0.00184
      26 -> 63         0.00011
      26 -> 68         0.00029
      26 -> 72        -0.00017
      26 -> 74        -0.00012
      26 -> 75         0.00011
      26 -> 91        -0.00074
      26 ->114         0.00013
      26 ->125        -0.00015
      26 ->147        -0.00011
      26 ->151         0.00029
      26 ->152         0.00017
      26 ->158         0.00028
      27 -> 37         0.01005
      27 -> 39        -0.00647
      27 -> 40         0.00328
      27 -> 41         0.00043
      27 -> 44        -0.00020
      27 -> 46        -0.00206
      27 -> 63         0.00019
      27 -> 68         0.00020
      27 -> 72        -0.00013
      27 -> 74        -0.00011
      27 -> 79        -0.00021
      27 -> 91        -0.00076
      27 ->100        -0.00016
      27 ->184         0.00012
      28 -> 38        -0.00264
      28 -> 42         0.00013
      28 -> 45        -0.00025
      28 -> 50        -0.00011
      28 -> 52         0.00013
      28 -> 54        -0.00013
      28 -> 60        -0.00016
      28 -> 62        -0.00032
      28 -> 64         0.00014
      28 -> 67         0.00080
      28 -> 70         0.00018
      28 -> 83        -0.00029
      28 -> 87         0.00049
      28 -> 89         0.00120
      28 -> 90        -0.00044
      28 -> 94         0.00013
      28 ->102        -0.00017
      28 ->104         0.00016
      28 ->115        -0.00056
      28 ->116        -0.00082
      28 ->123        -0.00023
      28 ->183         0.00027
      29 -> 38         0.00146
      29 -> 43         0.00037
      29 -> 45        -0.00050
      29 -> 50        -0.00024
      29 -> 52         0.00033
      29 -> 54        -0.00038
      29 -> 60        -0.00021
      29 -> 62         0.00032
      29 -> 64         0.00013
      29 -> 67        -0.00031
      29 -> 69         0.00022
      29 -> 70        -0.00011
      29 -> 71         0.00017
      29 -> 83         0.00015
      29 -> 87        -0.00015
      29 -> 89        -0.00062
      29 -> 97         0.00016
      29 ->104        -0.00011
      29 ->115         0.00031
      29 ->116         0.00035
      29 ->123         0.00010
      29 ->183        -0.00013
      30 -> 37         0.00352
      30 -> 39        -0.00094
      30 -> 40         0.00043
      30 -> 46         0.00018
      30 -> 79        -0.00015
      30 -> 91        -0.00010
      31 -> 38         0.00014
      31 -> 42        -0.00037
      31 -> 43        -0.00068
      31 -> 45         0.00120
      31 -> 50         0.00047
      31 -> 52        -0.00073
      31 -> 54         0.00078
      31 -> 60         0.00028
      31 -> 62        -0.00018
      31 -> 64        -0.00038
      31 -> 67        -0.00014
      31 -> 69        -0.00033
      31 -> 71        -0.00032
      31 -> 73        -0.00019
      31 -> 81         0.00010
      31 -> 87        -0.00022
      31 -> 90         0.00013
      31 -> 97        -0.00031
      31 ->102         0.00011
      31 ->116         0.00010
      32 -> 37        -0.00041
      32 -> 39        -0.00018
      32 -> 40        -0.00077
      32 -> 41         0.00138
      32 -> 47        -0.00168
      32 -> 49         0.00176
      32 -> 51        -0.00478
      32 -> 53         0.00365
      32 -> 55         0.00313
      32 -> 56        -0.00039
      32 -> 58        -0.00142
      32 -> 59         0.00042
      32 -> 61        -0.00076
      32 -> 63         0.00017
      32 -> 65         0.00065
      32 -> 66         0.00126
      32 -> 72         0.00102
      32 -> 74        -0.00138
      32 -> 75         0.00046
      32 -> 76        -0.00096
      32 -> 77         0.00093
      32 -> 78         0.00169
      32 -> 79         0.00060
      32 -> 80        -0.00036
      32 -> 82         0.00114
      32 -> 85        -0.00058
      32 -> 86         0.00066
      32 -> 88         0.00115
      32 -> 91         0.00020
      32 -> 93        -0.00166
      32 -> 95         0.00114
      32 ->103         0.00012
      32 ->106         0.00028
      32 ->107         0.00016
      32 ->109         0.00020
      32 ->111         0.00017
      32 ->112        -0.00011
      32 ->126        -0.00016
      32 ->131         0.00014
      32 ->132         0.00016
      32 ->133         0.00014
      32 ->134         0.00014
      32 ->155        -0.00011
      32 ->186         0.00030
      33 -> 38         0.00150
      33 -> 60        -0.00026
      33 -> 62        -0.00121
      33 -> 64         0.00023
      33 -> 67         0.00228
      33 -> 69        -0.00044
      33 -> 70         0.00061
      33 -> 71        -0.00015
      33 -> 73         0.00020
      33 -> 81         0.00011
      33 -> 83        -0.00115
      33 -> 84        -0.00019
      33 -> 87         0.00192
      33 -> 89         0.00544
      33 -> 90        -0.00195
      33 -> 92        -0.00061
      33 -> 94        -0.00073
      33 ->101        -0.00034
      33 ->102        -0.00020
      33 ->104         0.00025
      33 ->115        -0.00209
      33 ->116        -0.00293
      33 ->118         0.00068
      33 ->119         0.00016
      33 ->123        -0.00108
      33 ->127        -0.00017
      33 ->129         0.00025
      33 ->136         0.00017
      33 ->146        -0.00012
      33 ->149         0.00039
      33 ->183         0.00114
      34 -> 37         0.69207
      34 -> 39        -0.13068
      34 -> 40         0.05953
      34 -> 41         0.00628
      34 -> 44        -0.00215
      34 -> 46        -0.01890
      34 -> 47        -0.00031
      34 -> 48        -0.00048
      34 -> 49         0.00036
      34 -> 51        -0.00023
      34 -> 53        -0.00052
      34 -> 56        -0.00171
      34 -> 58        -0.00012
      34 -> 59        -0.00030
      34 -> 61        -0.00031
      34 -> 63        -0.00069
      34 -> 68         0.00016
      34 -> 72         0.00036
      34 -> 74         0.00032
      34 -> 75        -0.00016
      34 -> 76        -0.00022
      34 -> 78         0.00079
      34 -> 79        -0.00280
      34 -> 80        -0.00029
      34 -> 82         0.00055
      34 -> 85         0.00031
      34 -> 86         0.00059
      34 -> 91        -0.00956
      34 -> 93        -0.00079
      34 -> 98        -0.00083
      34 ->105        -0.00028
      34 ->114         0.00078
      34 ->121         0.00054
      34 ->125        -0.00016
      34 ->131        -0.00044
      34 ->132         0.00042
      34 ->151         0.00049
      34 ->152         0.00033
      34 ->158         0.00013
      34 ->173         0.00012
      34 ->174         0.00021
      34 ->184         0.00150
      35 -> 37        -0.00469
      35 -> 39         0.00064
      35 -> 40        -0.00054
      35 -> 41         0.00123
      35 -> 44         0.00090
      35 -> 46         0.00014
      35 -> 48        -0.00015
      35 -> 49         0.00071
      35 -> 51        -0.00132
      35 -> 53         0.00098
      35 -> 55         0.00024
      35 -> 58        -0.00012
      35 -> 61        -0.00046
      35 -> 65         0.00052
      35 -> 66         0.00039
      35 -> 72         0.00032
      35 -> 74        -0.00040
      35 -> 75         0.00013
      35 -> 76        -0.00020
      35 -> 77         0.00042
      35 -> 78         0.00048
      35 -> 79         0.00016
      35 -> 86         0.00024
      35 -> 88         0.00026
      35 -> 93        -0.00036
      35 -> 95         0.00024
      35 ->120        -0.00013
      35 ->126        -0.00011
      36 -> 38         0.00044
      36 -> 42         0.00040
      36 -> 43         0.00103
      36 -> 45        -0.00141
      36 -> 50        -0.00055
      36 -> 52         0.00066
      36 -> 54        -0.00107
      36 -> 62         0.00017
      36 -> 64         0.00062
      36 -> 69         0.00032
      36 -> 71         0.00039
      36 -> 73         0.00024
      36 -> 81        -0.00014
      36 -> 83         0.00015
      36 -> 87         0.00030
      36 -> 97         0.00042
      36 ->102        -0.00017
      36 ->104        -0.00014
      11 <- 67        -0.00017
      11 <- 89        -0.00027
      11 <-146        -0.00018
      11 <-149         0.00147
      11 <-150         0.00045
      11 <-153         0.00052
      12 <- 39        -0.00014
      12 <- 63         0.00017
      12 <- 68        -0.00013
      12 <- 98         0.00014
      12 <-100        -0.00019
      12 <-105         0.00022
      12 <-114         0.00022
      12 <-121         0.00029
      12 <-131        -0.00053
      12 <-132         0.00050
      12 <-143        -0.00030
      12 <-145        -0.00017
      12 <-147         0.00053
      12 <-148        -0.00036
      12 <-151        -0.00130
      12 <-152        -0.00063
      12 <-156         0.00014
      12 <-158        -0.00087
      14 <- 38         0.00033
      14 <- 67        -0.00015
      14 <-149        -0.00031
      14 <-153        -0.00013
      15 <- 89         0.00011
      15 <-149        -0.00050
      15 <-150        -0.00016
      15 <-153        -0.00019
      16 <- 37         0.00011
      16 <- 39         0.00011
      16 <- 46         0.00023
      16 <- 56        -0.00010
      16 <- 63        -0.00013
      17 <- 38        -0.00019
      17 <-149        -0.00055
      17 <-150        -0.00017
      17 <-153        -0.00021
      18 <- 37        -0.00015
      18 <- 39         0.00021
      18 <- 40        -0.00012
      18 <- 46         0.00024
      18 <- 56        -0.00018
      18 <- 63        -0.00014
      18 <-151        -0.00014
      18 <-158        -0.00011
      19 <- 89        -0.00011
      19 <-149        -0.00061
      19 <-150        -0.00020
      19 <-153        -0.00023
      20 <- 38         0.00028
      20 <- 87         0.00015
      20 <- 89         0.00045
      20 <- 90        -0.00017
      20 <- 94        -0.00011
      20 <-149         0.00071
      20 <-150         0.00022
      20 <-153         0.00026
      20 <-183        -0.00014
      21 <- 37        -0.00037
      21 <- 39         0.00020
      21 <- 40        -0.00012
      21 <- 46         0.00013
      21 <- 56        -0.00010
      21 <- 63        -0.00010
      21 <- 91         0.00011
      21 <-151        -0.00022
      21 <-152        -0.00010
      21 <-158        -0.00019
      22 <- 62         0.00016
      22 <- 67        -0.00024
      22 <- 87        -0.00018
      22 <- 89        -0.00052
      22 <- 90         0.00017
      22 <-149        -0.00072
      22 <-150        -0.00022
      22 <-153        -0.00026
      22 <-183         0.00015
      23 <- 43         0.00017
      23 <- 45        -0.00056
      23 <- 50        -0.00114
      23 <- 52         0.00084
      23 <- 54        -0.00154
      23 <- 60         0.00020
      23 <- 62         0.00011
      23 <- 64         0.00066
      23 <- 69         0.00076
      23 <- 70         0.00032
      23 <- 71         0.00082
      23 <- 73         0.00064
      23 <- 81        -0.00047
      23 <- 83         0.00055
      23 <- 84        -0.00053
      23 <- 87         0.00024
      23 <- 89         0.00025
      23 <- 90         0.00077
      23 <- 92        -0.00022
      23 <- 96         0.00048
      23 <- 97         0.00091
      23 <-102        -0.00073
      23 <-104        -0.00061
      23 <-108        -0.00019
      23 <-113        -0.00047
      23 <-115         0.00060
      23 <-116        -0.00043
      23 <-119         0.00026
      23 <-127         0.00016
      23 <-130        -0.00084
      23 <-135        -0.00018
      23 <-138         0.00023
      23 <-140        -0.00061
      23 <-142         0.00096
      23 <-150        -0.00019
      23 <-154        -0.00016
      23 <-161        -0.00013
      23 <-179        -0.00016
      23 <-185         0.00066
      23 <-188         0.00013
      24 <- 37         0.00022
      24 <- 39        -0.00010
      24 <- 68         0.00011
      24 <- 75        -0.00015
      24 <- 79        -0.00017
      24 <- 91         0.00017
      24 <-131        -0.00011
      24 <-132         0.00011
      24 <-143        -0.00015
      24 <-147         0.00030
      24 <-148        -0.00020
      24 <-151        -0.00076
      24 <-152        -0.00037
      24 <-156         0.00011
      24 <-158        -0.00069
      24 <-174        -0.00011
      25 <- 38        -0.00017
      25 <- 89        -0.00019
      25 <- 94         0.00013
      25 <-101        -0.00017
      26 <- 37        -0.00091
      26 <- 39         0.00037
      26 <- 40        -0.00017
      26 <- 79         0.00011
      26 <- 91         0.00011
      26 <-125        -0.00011
      26 <-151         0.00022
      26 <-152         0.00011
      26 <-158         0.00020
      27 <- 37        -0.00101
      27 <- 39         0.00053
      27 <- 40        -0.00027
      27 <- 46         0.00023
      27 <-121        -0.00010
      28 <- 38         0.00014
      28 <- 54         0.00012
      28 <- 62         0.00012
      28 <- 64        -0.00016
      28 <- 67        -0.00023
      28 <- 73        -0.00011
      28 <- 87        -0.00018
      28 <- 89        -0.00034
      28 <- 94         0.00014
      28 <- 97        -0.00012
      28 <-101         0.00011
      28 <-149        -0.00016
      29 <- 43        -0.00014
      29 <- 45         0.00020
      29 <- 50         0.00015
      29 <- 54         0.00031
      29 <- 60        -0.00012
      29 <- 64        -0.00029
      29 <- 69        -0.00024
      29 <- 71        -0.00019
      29 <- 73        -0.00022
      29 <- 81         0.00018
      29 <- 83        -0.00011
      29 <- 87        -0.00010
      29 <- 89         0.00017
      29 <- 90        -0.00012
      29 <- 97        -0.00027
      29 <-102         0.00012
      29 <-113         0.00010
      29 <-130         0.00010
      29 <-142        -0.00012
      29 <-185        -0.00013
      30 <- 39         0.00029
      30 <- 40        -0.00015
      30 <-114        -0.00012
      31 <- 42         0.00016
      31 <- 43         0.00044
      31 <- 45        -0.00069
      31 <- 50        -0.00027
      31 <- 52         0.00036
      31 <- 54        -0.00081
      31 <- 57         0.00015
      31 <- 60        -0.00013
      31 <- 62         0.00019
      31 <- 64         0.00061
      31 <- 67         0.00014
      31 <- 69         0.00043
      31 <- 71         0.00029
      31 <- 73         0.00018
      31 <- 81        -0.00022
      31 <- 83         0.00012
      31 <- 84         0.00016
      31 <- 87         0.00031
      31 <- 90        -0.00013
      31 <- 92         0.00022
      31 <- 97         0.00064
      31 <-102        -0.00017
      31 <-104        -0.00014
      31 <-110        -0.00011
      31 <-113        -0.00011
      31 <-119         0.00011
      31 <-130        -0.00012
      31 <-142         0.00016
      31 <-185         0.00025
      32 <- 39         0.00017
      32 <- 40         0.00040
      32 <- 41        -0.00068
      32 <- 44         0.00056
      32 <- 46        -0.00011
      32 <- 47         0.00152
      32 <- 48        -0.00034
      32 <- 49        -0.00210
      32 <- 51         0.00639
      32 <- 53        -0.00421
      32 <- 55        -0.00458
      32 <- 56         0.00056
      32 <- 58         0.00174
      32 <- 59        -0.00096
      32 <- 61         0.00108
      32 <- 63        -0.00021
      32 <- 65        -0.00117
      32 <- 66        -0.00205
      32 <- 68         0.00015
      32 <- 72        -0.00123
      32 <- 74         0.00185
      32 <- 75        -0.00074
      32 <- 76         0.00189
      32 <- 77        -0.00162
      32 <- 78        -0.00314
      32 <- 79        -0.00106
      32 <- 80        -0.00026
      32 <- 82        -0.00228
      32 <- 85         0.00101
      32 <- 86        -0.00114
      32 <- 88        -0.00284
      32 <- 91        -0.00033
      32 <- 93         0.00288
      32 <- 95        -0.00114
      32 <-100        -0.00010
      32 <-103         0.00016
      32 <-106        -0.00033
      32 <-107        -0.00013
      32 <-109         0.00031
      32 <-111         0.00043
      32 <-112         0.00018
      32 <-117         0.00025
      32 <-120        -0.00013
      32 <-126         0.00040
      32 <-131        -0.00024
      32 <-132        -0.00028
      32 <-133        -0.00017
      32 <-134        -0.00039
      32 <-137        -0.00018
      32 <-139         0.00020
      32 <-141        -0.00011
      32 <-144        -0.00013
      32 <-148        -0.00010
      32 <-170         0.00013
      32 <-176         0.00011
      32 <-180         0.00040
      32 <-181         0.00019
      32 <-186         0.00112
      32 <-187        -0.00026
      33 <- 38        -0.00083
      33 <- 62         0.00030
      33 <- 67        -0.00058
      33 <- 69         0.00012
      33 <- 70        -0.00017
      33 <- 83         0.00037
      33 <- 87        -0.00062
      33 <- 89        -0.00179
      33 <- 90         0.00064
      33 <- 92         0.00020
      33 <- 94         0.00027
      33 <-115         0.00034
      33 <-116         0.00047
      33 <-118        -0.00010
      33 <-123         0.00020
      33 <-183         0.00025
      34 <- 37        -0.01946
      34 <- 39         0.00794
      34 <- 40        -0.00387
      34 <- 41        -0.00048
      34 <- 44         0.00021
      34 <- 46         0.00223
      34 <- 56         0.00044
      34 <- 63         0.00055
      34 <- 68        -0.00050
      34 <- 72         0.00013
      34 <- 74         0.00026
      34 <- 75         0.00069
      34 <- 76         0.00016
      34 <- 78        -0.00047
      34 <- 79         0.00147
      34 <- 80         0.00011
      34 <- 82        -0.00016
      34 <- 86        -0.00015
      34 <- 91         0.00219
      34 <- 93         0.00019
      34 <- 98         0.00018
      34 <-114        -0.00014
      34 <-121        -0.00012
      34 <-131         0.00011
      34 <-132        -0.00011
      34 <-184         0.00029
      35 <- 37         0.00010
      35 <- 40         0.00021
      35 <- 48         0.00015
      35 <- 49        -0.00016
      35 <- 51         0.00120
      35 <- 53        -0.00078
      35 <- 55        -0.00111
      35 <- 58         0.00015
      35 <- 61         0.00021
      35 <- 65        -0.00015
      35 <- 66        -0.00041
      35 <- 72        -0.00047
      35 <- 74         0.00058
      35 <- 75        -0.00016
      35 <- 76         0.00024
      35 <- 77        -0.00035
      35 <- 78        -0.00059
      35 <- 79        -0.00022
      35 <- 80         0.00023
      35 <- 82        -0.00047
      35 <- 85         0.00034
      35 <- 86        -0.00027
      35 <- 88        -0.00051
      35 <- 93         0.00054
      35 <- 95        -0.00024
      35 <-106        -0.00013
      35 <-111         0.00013
      35 <-112         0.00013
      35 <-120        -0.00010
      35 <-186         0.00024
      36 <- 42        -0.00038
      36 <- 43        -0.00078
      36 <- 45         0.00157
      36 <- 50         0.00024
      36 <- 52        -0.00106
      36 <- 54         0.00076
      36 <- 57        -0.00034
      36 <- 60         0.00051
      36 <- 62        -0.00035
      36 <- 64        -0.00074
      36 <- 67        -0.00015
      36 <- 69        -0.00038
      36 <- 81         0.00017
      36 <- 84        -0.00036
      36 <- 87        -0.00047
      36 <- 89         0.00028
      36 <- 90         0.00049
      36 <- 92        -0.00034
      36 <- 96         0.00021
      36 <- 97        -0.00107
      36 <-102         0.00019
      36 <-104         0.00016
      36 <-185        -0.00030
 This state for optimization and/or second-order correction.
 Total Energy, E(TD-HF/TD-KS) =  -491.525736348    
 Copying the excited state density for this state as the 1-particle RhoCI density.
 
 Excited State   2:      Singlet-A'     4.2762 eV  289.94 nm  f=0.3372  <S**2>=0.000
      11 -> 41         0.00022
      11 -> 44         0.00063
      11 -> 47         0.00072
      11 -> 48        -0.00113
      11 -> 49        -0.00028
      11 -> 51         0.00201
      11 -> 53        -0.00035
      11 -> 55        -0.00067
      11 -> 59        -0.00040
      11 -> 65         0.00022
      11 -> 72         0.00013
      11 -> 76         0.00038
      11 -> 77         0.00011
      11 -> 78        -0.00013
      11 -> 80        -0.00035
      11 -> 82        -0.00016
      11 -> 85         0.00010
      11 -> 86         0.00014
      11 -> 88         0.00011
      11 -> 93         0.00030
      11 -> 95        -0.00025
      11 -> 99        -0.00053
      11 ->100         0.00012
      11 ->103         0.00016
      11 ->109        -0.00081
      11 ->111        -0.00066
      11 ->131         0.00015
      11 ->132         0.00019
      11 ->133         0.00017
      11 ->134         0.00020
      11 ->139         0.00039
      11 ->141        -0.00014
      11 ->155        -0.00025
      12 -> 43        -0.00039
      12 -> 45         0.00089
      12 -> 50         0.00144
      12 -> 52        -0.00087
      12 -> 54         0.00231
      12 -> 57         0.00035
      12 -> 60        -0.00120
      12 -> 62         0.00029
      12 -> 64        -0.00019
      12 -> 69         0.00058
      12 -> 70         0.00061
      12 -> 71        -0.00059
      12 -> 73        -0.00015
      12 -> 81         0.00065
      12 -> 84         0.00076
      12 -> 90        -0.00024
      12 -> 92         0.00016
      12 -> 94        -0.00011
      12 -> 96        -0.00043
      12 -> 97        -0.00053
      12 ->102         0.00033
      12 ->104         0.00026
      12 ->108        -0.00058
      12 ->110        -0.00013
      12 ->113        -0.00069
      12 ->115         0.00066
      12 ->116        -0.00045
      12 ->127         0.00012
      12 ->150         0.00018
      12 ->154        -0.00049
      12 ->161         0.00018
      12 ->163        -0.00011
      12 ->165         0.00021
      13 -> 37         0.00086
      13 -> 39         0.00261
      13 -> 40         0.00312
      13 -> 41         0.00227
      13 -> 44        -0.00156
      13 -> 47         0.00027
      13 -> 48         0.00071
      13 -> 49         0.00172
      13 -> 51         0.00100
      13 -> 53        -0.00019
      13 -> 55         0.00053
      13 -> 56        -0.00019
      13 -> 58         0.00013
      13 -> 59         0.00037
      13 -> 61         0.00084
      13 -> 63         0.00017
      13 -> 65        -0.00024
      13 -> 66         0.00082
      13 -> 68         0.00011
      13 -> 72         0.00046
      13 -> 74        -0.00029
      13 -> 75        -0.00028
      13 -> 76        -0.00082
      13 -> 77         0.00070
      13 -> 78        -0.00133
      13 -> 79        -0.00017
      13 -> 82         0.00034
      13 -> 85        -0.00049
      13 -> 88         0.00018
      13 -> 93         0.00030
      13 -> 99         0.00076
      13 ->100        -0.00024
      13 ->103         0.00038
      13 ->106         0.00061
      13 ->107        -0.00036
      13 ->111        -0.00020
      13 ->112         0.00049
      13 ->117        -0.00025
      13 ->120        -0.00034
      13 ->124         0.00014
      13 ->128        -0.00026
      13 ->133         0.00024
      13 ->141         0.00027
      13 ->143         0.00011
      13 ->144        -0.00015
      13 ->173        -0.00010
      13 ->181        -0.00011
      14 -> 37        -0.00046
      14 -> 39        -0.00157
      14 -> 40        -0.00191
      14 -> 41        -0.00125
      14 -> 44        -0.00087
      14 -> 46         0.00010
      14 -> 47        -0.00116
      14 -> 49        -0.00011
      14 -> 51         0.00074
      14 -> 53         0.00016
      14 -> 55         0.00156
      14 -> 56        -0.00014
      14 -> 58        -0.00141
      14 -> 59        -0.00010
      14 -> 61        -0.00037
      14 -> 65        -0.00094
      14 -> 68        -0.00014
      14 -> 72        -0.00040
      14 -> 74         0.00033
      14 -> 76         0.00060
      14 -> 77        -0.00034
      14 -> 79        -0.00023
      14 -> 80         0.00114
      14 -> 82         0.00102
      14 -> 85        -0.00114
      14 -> 86        -0.00105
      14 -> 88         0.00017
      14 -> 93        -0.00043
      14 -> 99        -0.00057
      14 ->100         0.00015
      14 ->103         0.00050
      14 ->105         0.00011
      14 ->106        -0.00011
      14 ->107         0.00014
      14 ->109         0.00037
      14 ->111         0.00014
      14 ->112         0.00033
      14 ->117         0.00040
      14 ->120         0.00018
      14 ->126        -0.00020
      14 ->128         0.00015
      14 ->133         0.00013
      14 ->134        -0.00015
      14 ->137         0.00011
      14 ->139        -0.00025
      14 ->141        -0.00013
      14 ->160        -0.00020
      14 ->176         0.00011
      15 -> 37         0.00058
      15 -> 39         0.00227
      15 -> 40         0.00317
      15 -> 41         0.00018
      15 -> 44        -0.00111
      15 -> 47         0.00107
      15 -> 48        -0.00230
      15 -> 49         0.00030
      15 -> 51        -0.00060
      15 -> 53         0.00145
      15 -> 55        -0.00068
      15 -> 56        -0.00019
      15 -> 58         0.00057
      15 -> 59         0.00114
      15 -> 61         0.00088
      15 -> 63        -0.00017
      15 -> 65         0.00079
      15 -> 66        -0.00116
      15 -> 68         0.00029
      15 -> 72        -0.00023
      15 -> 74         0.00059
      15 -> 75        -0.00037
      15 -> 77         0.00048
      15 -> 78         0.00039
      15 -> 79         0.00022
      15 -> 80         0.00206
      15 -> 82         0.00135
      15 -> 85         0.00038
      15 -> 86         0.00122
      15 -> 88         0.00048
      15 -> 93         0.00040
      15 -> 95         0.00040
      15 -> 98        -0.00013
      15 ->100        -0.00010
      15 ->106         0.00060
      15 ->107        -0.00011
      15 ->109         0.00026
      15 ->111         0.00037
      15 ->112        -0.00016
      15 ->117         0.00039
      15 ->120        -0.00032
      15 ->126        -0.00040
      15 ->128        -0.00014
      15 ->131        -0.00010
      15 ->132        -0.00012
      15 ->137         0.00011
      15 ->141         0.00012
      15 ->160        -0.00021
      15 ->170         0.00015
      15 ->175         0.00012
      16 -> 42         0.00010
      16 -> 43        -0.00022
      16 -> 45         0.00239
      16 -> 50         0.00228
      16 -> 52        -0.00141
      16 -> 54         0.00139
      16 -> 57         0.00020
      16 -> 60         0.00071
      16 -> 62        -0.00022
      16 -> 64         0.00050
      16 -> 67        -0.00016
      16 -> 69        -0.00134
      16 -> 70        -0.00078
      16 -> 71        -0.00038
      16 -> 73        -0.00086
      16 -> 81         0.00059
      16 -> 84        -0.00013
      16 -> 89         0.00016
      16 -> 90         0.00060
      16 -> 92        -0.00072
      16 -> 94         0.00027
      16 -> 96         0.00076
      16 -> 97         0.00050
      16 ->108         0.00017
      16 ->110         0.00019
      16 ->113        -0.00022
      16 ->119         0.00016
      16 ->122         0.00014
      16 ->138         0.00018
      16 ->140        -0.00010
      16 ->142        -0.00010
      16 ->150        -0.00013
      16 ->159        -0.00014
      17 -> 37        -0.00062
      17 -> 39        -0.00225
      17 -> 40        -0.00233
      17 -> 41        -0.00442
      17 -> 44        -0.00054
      17 -> 47         0.00873
      17 -> 48         0.00158
      17 -> 49         0.00074
      17 -> 51        -0.00145
      17 -> 53        -0.00313
      17 -> 55        -0.00038
      17 -> 56         0.00056
      17 -> 58         0.00063
      17 -> 59        -0.00197
      17 -> 61        -0.00118
      17 -> 63         0.00018
      17 -> 65        -0.00043
      17 -> 66         0.00101
      17 -> 68        -0.00030
      17 -> 72         0.00091
      17 -> 74        -0.00142
      17 -> 75         0.00060
      17 -> 76         0.00024
      17 -> 77         0.00065
      17 -> 78         0.00139
      17 -> 80         0.00076
      17 -> 82        -0.00102
      17 -> 85        -0.00191
      17 -> 86        -0.00040
      17 -> 88        -0.00040
      17 -> 93        -0.00058
      17 -> 95        -0.00095
      17 -> 98         0.00021
      17 ->100         0.00026
      17 ->103        -0.00026
      17 ->106         0.00039
      17 ->107         0.00077
      17 ->109         0.00020
      17 ->111         0.00071
      17 ->114         0.00012
      17 ->117        -0.00073
      17 ->120        -0.00034
      17 ->131         0.00017
      17 ->132         0.00021
      17 ->137        -0.00020
      17 ->144        -0.00013
      17 ->145        -0.00015
      17 ->147        -0.00013
      17 ->155         0.00016
      17 ->166         0.00012
      17 ->168         0.00011
      17 ->172        -0.00011
      18 -> 38         0.00043
      18 -> 42         0.00376
      18 -> 43        -0.00396
      18 -> 45        -0.00045
      18 -> 50         0.00618
      18 -> 52         0.00095
      18 -> 54         0.00370
      18 -> 57         0.00245
      18 -> 60         0.00126
      18 -> 62        -0.00096
      18 -> 64        -0.00211
      18 -> 67        -0.00042
      18 -> 69        -0.00198
      18 -> 70        -0.00041
      18 -> 71        -0.00070
      18 -> 73        -0.00119
      18 -> 81         0.00122
      18 -> 83         0.00077
      18 -> 84        -0.00245
      18 -> 87         0.00122
      18 -> 89        -0.00033
      18 -> 96         0.00045
      18 -> 97         0.00017
      18 ->102        -0.00030
      18 ->104        -0.00017
      18 ->108         0.00037
      18 ->113         0.00031
      18 ->115         0.00040
      18 ->116        -0.00026
      18 ->118        -0.00010
      18 ->119         0.00041
      18 ->122        -0.00052
      18 ->123        -0.00012
      18 ->127         0.00021
      18 ->129        -0.00024
      18 ->130        -0.00018
      18 ->136         0.00010
      18 ->140         0.00011
      18 ->161         0.00016
      19 -> 37         0.00033
      19 -> 39         0.00272
      19 -> 40         0.00449
      19 -> 41        -0.00330
      19 -> 44        -0.00223
      19 -> 46        -0.00021
      19 -> 47         0.00396
      19 -> 48        -0.00043
      19 -> 49        -0.00369
      19 -> 51        -0.00357
      19 -> 53        -0.00114
      19 -> 55        -0.00162
      19 -> 56         0.00039
      19 -> 58         0.00381
      19 -> 61         0.00115
      19 -> 63        -0.00021
      19 -> 66        -0.00096
      19 -> 68         0.00017
      19 -> 72        -0.00028
      19 -> 74         0.00032
      19 -> 76        -0.00077
      19 -> 77         0.00129
      19 -> 78         0.00079
      19 -> 79         0.00026
      19 -> 80         0.00126
      19 -> 82        -0.00038
      19 -> 85         0.00047
      19 -> 86         0.00229
      19 -> 88        -0.00114
      19 -> 95        -0.00091
      19 -> 99         0.00021
      19 ->100        -0.00015
      19 ->103        -0.00028
      19 ->105        -0.00012
      19 ->106         0.00053
      19 ->109         0.00041
      19 ->111         0.00059
      19 ->112        -0.00074
      19 ->117        -0.00044
      19 ->124        -0.00020
      19 ->126         0.00020
      19 ->128         0.00032
      19 ->131         0.00026
      19 ->132         0.00023
      19 ->133        -0.00013
      19 ->139         0.00011
      19 ->148        -0.00011
      19 ->155         0.00026
      19 ->160         0.00014
      19 ->168         0.00015
      19 ->172        -0.00012
      19 ->176         0.00016
      20 -> 37        -0.00017
      20 -> 39        -0.00240
      20 -> 40        -0.00318
      20 -> 41        -0.00295
      20 -> 44         0.00194
      20 -> 47         0.00219
      20 -> 48        -0.00355
      20 -> 49        -0.00018
      20 -> 51        -0.00053
      20 -> 53        -0.00113
      20 -> 55        -0.00130
      20 -> 56         0.00011
      20 -> 58         0.00040
      20 -> 59         0.00059
      20 -> 61         0.00061
      20 -> 63        -0.00024
      20 -> 65         0.00042
      20 -> 66        -0.00045
      20 -> 72        -0.00064
      20 -> 74         0.00047
      20 -> 76        -0.00123
      20 -> 77        -0.00170
      20 -> 78         0.00206
      20 -> 79         0.00103
      20 -> 80        -0.00208
      20 -> 82        -0.00031
      20 -> 85         0.00102
      20 -> 86         0.00054
      20 -> 88         0.00205
      20 -> 93        -0.00060
      20 -> 95         0.00093
      20 -> 99        -0.00021
      20 ->100         0.00014
      20 ->103         0.00029
      20 ->105         0.00011
      20 ->106        -0.00016
      20 ->107         0.00029
      20 ->109        -0.00044
      20 ->111        -0.00079
      20 ->112        -0.00030
      20 ->114         0.00014
      20 ->117        -0.00053
      20 ->128        -0.00014
      20 ->137        -0.00021
      20 ->139         0.00013
      20 ->144        -0.00016
      20 ->145        -0.00019
      20 ->155        -0.00032
      20 ->168        -0.00021
      20 ->175        -0.00012
      21 -> 38        -0.00123
      21 -> 42        -0.00926
      21 -> 43         0.00685
      21 -> 45         0.00543
      21 -> 50         0.00426
      21 -> 52         0.00020
      21 -> 54         0.00335
      21 -> 57         0.00065
      21 -> 60        -0.00075
      21 -> 62         0.00048
      21 -> 64         0.00176
      21 -> 67        -0.00082
      21 -> 69        -0.00471
      21 -> 70        -0.00016
      21 -> 71        -0.00125
      21 -> 73         0.00107
      21 -> 81         0.00097
      21 -> 83         0.00101
      21 -> 84         0.00041
      21 -> 87         0.00016
      21 -> 89        -0.00015
      21 -> 90         0.00014
      21 -> 92        -0.00263
      21 -> 94         0.00036
      21 -> 96         0.00037
      21 -> 97         0.00060
      21 ->108         0.00081
      21 ->110         0.00011
      21 ->113        -0.00034
      21 ->115         0.00029
      21 ->116        -0.00027
      21 ->118         0.00015
      21 ->119        -0.00067
      21 ->122         0.00021
      21 ->123         0.00020
      21 ->127         0.00022
      21 ->129         0.00060
      21 ->130        -0.00015
      21 ->138         0.00025
      21 ->140         0.00011
      21 ->157        -0.00018
      21 ->161         0.00014
      21 ->178        -0.00012
      22 -> 37        -0.00015
      22 -> 39        -0.00433
      22 -> 40        -0.00682
      22 -> 41        -0.00076
      22 -> 44        -0.00181
      22 -> 46         0.00070
      22 -> 47        -0.00940
      22 -> 48         0.00062
      22 -> 49         0.00352
      22 -> 51        -0.00104
      22 -> 53        -0.00109
      22 -> 55        -0.00072
      22 -> 56        -0.00057
      22 -> 58        -0.00170
      22 -> 59         0.00412
      22 -> 61         0.00086
      22 -> 63        -0.00047
      22 -> 65         0.00028
      22 -> 66        -0.00223
      22 -> 72        -0.00150
      22 -> 74         0.00190
      22 -> 75        -0.00043
      22 -> 76         0.00093
      22 -> 77        -0.00272
      22 -> 78         0.00086
      22 -> 79         0.00020
      22 -> 80         0.00271
      22 -> 82        -0.00092
      22 -> 85        -0.00119
      22 -> 86         0.00055
      22 -> 88        -0.00161
      22 -> 91        -0.00014
      22 -> 93         0.00124
      22 -> 95        -0.00026
      22 -> 98         0.00017
      22 -> 99         0.00053
      22 ->103        -0.00038
      22 ->106        -0.00023
      22 ->107        -0.00016
      22 ->109         0.00114
      22 ->112         0.00019
      22 ->114         0.00010
      22 ->117         0.00050
      22 ->120        -0.00029
      22 ->121        -0.00018
      22 ->124         0.00012
      22 ->128        -0.00044
      22 ->131        -0.00015
      22 ->133         0.00028
      22 ->134         0.00017
      22 ->147         0.00011
      22 ->148         0.00025
      22 ->155         0.00035
      22 ->166        -0.00017
      22 ->168         0.00013
      22 ->170         0.00017
      23 -> 37         0.00239
      23 -> 39         0.00428
      23 -> 40        -0.00263
      23 -> 41        -0.00040
      23 -> 44         0.00013
      23 -> 46         0.00195
      23 -> 47        -0.00024
      23 -> 53        -0.00011
      23 -> 56        -0.00152
      23 -> 59        -0.00023
      23 -> 61        -0.00042
      23 -> 63        -0.00284
      23 -> 65        -0.00028
      23 -> 66         0.00026
      23 -> 68         0.00197
      23 -> 72        -0.00081
      23 -> 74        -0.00097
      23 -> 75        -0.00178
      23 -> 76        -0.00024
      23 -> 77        -0.00022
      23 -> 78         0.00077
      23 -> 79        -0.00228
      23 -> 82         0.00013
      23 -> 86         0.00015
      23 -> 91        -0.00183
      23 -> 93        -0.00012
      23 -> 98        -0.00035
      23 -> 99         0.00013
      23 ->100         0.00040
      23 ->105        -0.00036
      23 ->114        -0.00018
      23 ->121        -0.00018
      23 ->131         0.00034
      23 ->132        -0.00032
      23 ->151        -0.00011
      23 ->158         0.00028
      23 ->174        -0.00018
      24 -> 38         0.00037
      24 -> 42         0.00254
      24 -> 43        -0.00424
      24 -> 45         0.00170
      24 -> 50        -0.00150
      24 -> 52        -0.00189
      24 -> 54         0.00024
      24 -> 57        -0.00097
      24 -> 60        -0.00080
      24 -> 62         0.00026
      24 -> 67         0.00037
      24 -> 69         0.00238
      24 -> 70         0.00061
      24 -> 71         0.00230
      24 -> 73         0.00106
      24 -> 81         0.00491
      24 -> 83         0.00122
      24 -> 84         0.00161
      24 -> 87         0.00169
      24 -> 90         0.00081
      24 -> 92        -0.00037
      24 -> 96         0.00064
      24 -> 97        -0.00099
      24 ->102        -0.00034
      24 ->104        -0.00027
      24 ->108        -0.00022
      24 ->110        -0.00019
      24 ->113        -0.00041
      24 ->115         0.00070
      24 ->116        -0.00052
      24 ->122        -0.00049
      24 ->127         0.00025
      24 ->130         0.00030
      24 ->140        -0.00015
      24 ->154        -0.00028
      24 ->157         0.00013
      24 ->165         0.00013
      24 ->171        -0.00026
      24 ->179         0.00017
      25 -> 39        -0.00286
      25 -> 40        -0.00504
      25 -> 41         0.00191
      25 -> 44         0.00514
      25 -> 47        -0.00845
      25 -> 48        -0.00933
      25 -> 49        -0.00218
      25 -> 51        -0.00136
      25 -> 53         0.00455
      25 -> 55         0.00045
      25 -> 56        -0.00024
      25 -> 59         0.00058
      25 -> 61         0.00053
      25 -> 63        -0.00029
      25 -> 65         0.00102
      25 -> 66        -0.00227
      25 -> 68         0.00041
      25 -> 74         0.00085
      25 -> 75        -0.00076
      25 -> 76         0.00225
      25 -> 77         0.00033
      25 -> 82         0.00038
      25 -> 85         0.00049
      25 -> 86        -0.00020
      25 -> 88         0.00047
      25 -> 93         0.00086
      25 -> 95         0.00051
      25 -> 99        -0.00048
      25 ->100         0.00016
      25 ->103        -0.00022
      25 ->106        -0.00035
      25 ->107         0.00018
      25 ->109        -0.00045
      25 ->111         0.00039
      25 ->112         0.00024
      25 ->117         0.00023
      25 ->120        -0.00015
      25 ->128        -0.00014
      25 ->131        -0.00027
      25 ->132        -0.00026
      25 ->133         0.00027
      25 ->137         0.00021
      25 ->139        -0.00017
      25 ->144         0.00013
      25 ->145         0.00014
      25 ->147         0.00012
      25 ->148         0.00017
      25 ->160        -0.00019
      25 ->164         0.00012
      26 -> 38         0.00039
      26 -> 42         0.00721
      26 -> 43        -0.00126
      26 -> 45         0.00291
      26 -> 50         0.00618
      26 -> 52        -0.00990
      26 -> 54         0.00382
      26 -> 57        -0.00056
      26 -> 60         0.00115
      26 -> 62         0.00060
      26 -> 64         0.00512
      26 -> 67         0.00097
      26 -> 69        -0.00207
      26 -> 70        -0.00663
      26 -> 71         0.00174
      26 -> 73        -0.00263
      26 -> 81         0.00159
      26 -> 83        -0.00288
      26 -> 84        -0.00199
      26 -> 87        -0.00067
      26 -> 89         0.00011
      26 -> 90         0.00104
      26 -> 92        -0.00082
      26 -> 96         0.00041
      26 -> 97         0.00144
      26 ->104         0.00012
      26 ->108         0.00081
      26 ->113         0.00029
      26 ->122        -0.00042
      26 ->127        -0.00011
      26 ->129        -0.00023
      26 ->138         0.00011
      26 ->140        -0.00041
      26 ->157         0.00029
      26 ->159        -0.00011
      26 ->171         0.00012
      27 -> 42        -0.00058
      27 -> 43        -0.00556
      27 -> 45         0.00339
      27 -> 50         0.00114
      27 -> 52        -0.00590
      27 -> 54        -0.00046
      27 -> 57         0.00056
      27 -> 60         0.00136
      27 -> 62        -0.00092
      27 -> 64        -0.00305
      27 -> 67         0.00029
      27 -> 69         0.00192
      27 -> 70         0.00043
      27 -> 71        -0.00158
      27 -> 73        -0.00070
      27 -> 81        -0.00029
      27 -> 83         0.00036
      27 -> 84        -0.00011
      27 -> 87         0.00039
      27 -> 89        -0.00015
      27 -> 90        -0.00040
      27 -> 92         0.00055
      27 ->102        -0.00021
      27 ->104        -0.00021
      27 ->108        -0.00048
      27 ->110        -0.00035
      27 ->113         0.00087
      27 ->115         0.00017
      27 ->116        -0.00013
      27 ->119        -0.00028
      27 ->127         0.00040
      27 ->129         0.00021
      27 ->130        -0.00026
      27 ->135        -0.00021
      27 ->138        -0.00011
      27 ->140        -0.00019
      27 ->150         0.00015
      27 ->157         0.00013
      27 ->159         0.00012
      28 -> 37        -0.00237
      28 -> 39        -0.00122
      28 -> 40         0.00062
      28 -> 41        -0.00433
      28 -> 44        -0.00247
      28 -> 46        -0.00512
      28 -> 47        -0.01233
      28 -> 48         0.01073
      28 -> 49        -0.00973
      28 -> 51         0.00238
      28 -> 53        -0.00223
      28 -> 55         0.00461
      28 -> 56         0.00119
      28 -> 58        -0.00059
      28 -> 59        -0.00118
      28 -> 61         0.00064
      28 -> 63        -0.00042
      28 -> 65        -0.00144
      28 -> 66         0.00193
      28 -> 68        -0.00147
      28 -> 72        -0.00211
      28 -> 74        -0.00016
      28 -> 75         0.00105
      28 -> 76        -0.00056
      28 -> 77         0.00047
      28 -> 78        -0.00188
      28 -> 79        -0.00044
      28 -> 80         0.00133
      28 -> 82         0.00055
      28 -> 85         0.00041
      28 -> 86        -0.00207
      28 -> 88        -0.00146
      28 -> 95        -0.00011
      28 ->100        -0.00050
      28 ->103         0.00014
      28 ->105        -0.00012
      28 ->106        -0.00026
      28 ->109         0.00019
      28 ->111         0.00043
      28 ->112         0.00104
      28 ->114        -0.00021
      28 ->120         0.00074
      28 ->125        -0.00015
      28 ->128         0.00012
      28 ->133         0.00028
      28 ->134        -0.00022
      28 ->137         0.00028
      28 ->139        -0.00015
      28 ->141        -0.00026
      28 ->143        -0.00011
      28 ->144         0.00032
      28 ->155         0.00013
      28 ->164        -0.00012
      28 ->168         0.00010
      29 -> 37        -0.00013
      29 -> 39        -0.00362
      29 -> 40         0.00253
      29 -> 41         0.00396
      29 -> 44         0.00037
      29 -> 46        -0.00805
      29 -> 47         0.00562
      29 -> 48        -0.00654
      29 -> 49         0.00515
      29 -> 51        -0.00137
      29 -> 53         0.00161
      29 -> 55        -0.00203
      29 -> 56         0.00279
      29 -> 59         0.00096
      29 -> 61        -0.00035
      29 -> 63        -0.00134
      29 -> 65         0.00121
      29 -> 66        -0.00205
      29 -> 68        -0.00193
      29 -> 72        -0.00196
      29 -> 74        -0.00164
      29 -> 75         0.00173
      29 -> 76         0.00128
      29 -> 77        -0.00018
      29 -> 78         0.00080
      29 -> 79         0.00126
      29 -> 80        -0.00067
      29 -> 82        -0.00037
      29 -> 85        -0.00023
      29 -> 86         0.00097
      29 -> 88         0.00069
      29 -> 93        -0.00012
      29 -> 98         0.00032
      29 -> 99        -0.00052
      29 ->100        -0.00068
      29 ->103        -0.00018
      29 ->105        -0.00015
      29 ->106         0.00012
      29 ->109        -0.00011
      29 ->111        -0.00017
      29 ->112        -0.00058
      29 ->120        -0.00020
      29 ->121        -0.00015
      29 ->124        -0.00025
      29 ->125        -0.00040
      29 ->133        -0.00023
      29 ->134         0.00017
      29 ->137        -0.00012
      29 ->141        -0.00015
      29 ->143        -0.00015
      29 ->144        -0.00012
      29 ->145        -0.00011
      29 ->151        -0.00014
      30 -> 38        -0.00037
      30 -> 42        -0.00848
      30 -> 43        -0.00223
      30 -> 45         0.00796
      30 -> 50        -0.01946
      30 -> 52        -0.00536
      30 -> 54         0.00026
      30 -> 57        -0.00624
      30 -> 60        -0.00075
      30 -> 62         0.00051
      30 -> 64         0.00310
      30 -> 67         0.00021
      30 -> 69         0.00313
      30 -> 70         0.00019
      30 -> 71        -0.00172
      30 -> 73        -0.00050
      30 -> 81         0.00044
      30 -> 83        -0.00128
      30 -> 84         0.00377
      30 -> 87        -0.00116
      30 -> 89         0.00076
      30 -> 90         0.00105
      30 -> 92         0.00077
      30 -> 94        -0.00015
      30 -> 97        -0.00049
      30 ->102        -0.00024
      30 ->104        -0.00022
      30 ->108        -0.00039
      30 ->110         0.00090
      30 ->113        -0.00048
      30 ->119         0.00062
      30 ->122         0.00075
      30 ->127        -0.00029
      30 ->130         0.00019
      30 ->136        -0.00014
      30 ->138        -0.00029
      30 ->140        -0.00013
      30 ->157         0.00017
      30 ->161        -0.00012
      30 ->169        -0.00010
      31 -> 37        -0.02527
      31 -> 39         0.02716
      31 -> 40        -0.01141
      31 -> 41         0.00044
      31 -> 46         0.00095
      31 -> 47         0.00060
      31 -> 48        -0.00081
      31 -> 49        -0.00022
      31 -> 53         0.00127
      31 -> 55         0.00016
      31 -> 56         0.00259
      31 -> 58         0.00025
      31 -> 59        -0.00014
      31 -> 61        -0.00073
      31 -> 63        -0.00573
      31 -> 66        -0.00077
      31 -> 68        -0.00395
      31 -> 72        -0.00158
      31 -> 74        -0.00097
      31 -> 76         0.00019
      31 -> 78         0.00158
      31 -> 79        -0.00370
      31 -> 80        -0.00035
      31 -> 91         0.00096
      31 -> 93        -0.00011
      31 -> 98        -0.00195
      31 ->100         0.00027
      31 ->105        -0.00070
      31 ->114         0.00016
      31 ->120         0.00022
      31 ->121        -0.00019
      31 ->124        -0.00058
      31 ->125         0.00023
      31 ->131        -0.00043
      31 ->132         0.00034
      31 ->133        -0.00014
      31 ->134         0.00011
      31 ->139        -0.00012
      31 ->141        -0.00046
      31 ->143        -0.00011
      31 ->145        -0.00013
      31 ->147        -0.00027
      31 ->148         0.00024
      31 ->151         0.00019
      31 ->152         0.00018
      31 ->174        -0.00011
      32 -> 38         0.00968
      32 -> 42        -0.00039
      32 -> 43         0.00028
      32 -> 45         0.00019
      32 -> 60        -0.00034
      32 -> 62        -0.00132
      32 -> 64         0.00026
      32 -> 67         0.00261
      32 -> 69        -0.00055
      32 -> 70         0.00077
      32 -> 71        -0.00020
      32 -> 73         0.00024
      32 -> 81         0.00011
      32 -> 83        -0.00139
      32 -> 84        -0.00023
      32 -> 87         0.00223
      32 -> 89         0.00619
      32 -> 90        -0.00217
      32 -> 92        -0.00068
      32 -> 94        -0.00103
      32 -> 96         0.00020
      32 ->102         0.00052
      32 ->104        -0.00058
      32 ->115         0.00050
      32 ->116         0.00070
      32 ->118        -0.00014
      32 ->123         0.00013
      32 ->149        -0.00042
      32 ->150        -0.00013
      32 ->153        -0.00012
      32 ->183        -0.00010
      33 -> 37         0.00447
      33 -> 39         0.00425
      33 -> 40         0.01088
      33 -> 41        -0.01642
      33 -> 44        -0.00925
      33 -> 47         0.02078
      33 -> 48         0.00418
      33 -> 49        -0.00189
      33 -> 53        -0.00865
      33 -> 55        -0.00362
      33 -> 56         0.00057
      33 -> 58         0.00352
      33 -> 59         0.00073
      33 -> 61         0.00170
      33 -> 63        -0.00035
      33 -> 65        -0.00114
      33 -> 66        -0.00048
      33 -> 68        -0.00015
      33 -> 72        -0.00298
      33 -> 74         0.00310
      33 -> 75        -0.00052
      33 -> 76        -0.00061
      33 -> 77        -0.00268
      33 -> 78        -0.00171
      33 -> 79        -0.00049
      33 -> 82        -0.00175
      33 -> 85         0.00341
      33 -> 86        -0.00322
      33 -> 88         0.00179
      33 -> 91        -0.00049
      33 -> 93         0.00325
      33 -> 95        -0.00248
      33 -> 99         0.00035
      33 ->106         0.00068
      33 ->107         0.00047
      33 ->109         0.00047
      33 ->111         0.00083
      33 ->112        -0.00065
      33 ->117        -0.00036
      33 ->120        -0.00048
      33 ->124        -0.00013
      33 ->126        -0.00016
      33 ->128         0.00013
      33 ->133        -0.00034
      33 ->134        -0.00021
      33 ->137        -0.00025
      33 ->139        -0.00022
[...]
      28 <- 75         0.00016
      28 <- 77         0.00012
      28 <- 79         0.00023
      28 <- 91         0.00019
      28 <-105        -0.00018
      28 <-114        -0.00020
      28 <-121        -0.00017
      28 <-131         0.00017
      28 <-158        -0.00017
      29 <- 37         0.00020
      29 <- 39         0.00010
      29 <- 40        -0.00024
      29 <- 41         0.00040
      29 <- 44         0.00020
      29 <- 47        -0.00157
      29 <- 48         0.00014
      29 <- 49         0.00030
      29 <- 51         0.00034
      29 <- 53         0.00057
      29 <- 58        -0.00086
      29 <- 59        -0.00026
      29 <- 61         0.00020
      29 <- 65         0.00020
      29 <- 66         0.00042
      29 <- 72         0.00010
      29 <- 74        -0.00011
      29 <- 77         0.00024
      29 <- 78         0.00027
      29 <- 80         0.00018
      29 <- 85        -0.00019
      29 <- 86         0.00018
      29 <- 93        -0.00024
      29 <-109        -0.00021
      29 <-132         0.00019
      29 <-155        -0.00012
      29 <-186        -0.00011
      30 <- 38        -0.00094
      30 <- 87        -0.00011
      30 <- 89        -0.00026
      30 <- 94        -0.00035
      30 <- 96         0.00011
      30 <-101         0.00015
      30 <-102         0.00033
      30 <-104        -0.00036
      30 <-115         0.00011
      30 <-116         0.00015
      30 <-123        -0.00020
      30 <-129         0.00011
      30 <-136         0.00017
      30 <-167        -0.00010
      31 <- 39         0.00019
      31 <- 40         0.00059
      31 <- 41        -0.00116
      31 <- 44        -0.00056
      31 <- 47         0.00391
      31 <- 48        -0.00036
      31 <- 49        -0.00048
      31 <- 51        -0.00061
      31 <- 53        -0.00167
      31 <- 55        -0.00043
      31 <- 56         0.00018
      31 <- 58         0.00175
      31 <- 59         0.00042
      31 <- 61        -0.00013
      31 <- 65        -0.00022
      31 <- 66        -0.00052
      31 <- 72        -0.00019
      31 <- 74         0.00022
      31 <- 77        -0.00037
      31 <- 80        -0.00012
      31 <- 82        -0.00018
      31 <- 85         0.00051
      31 <- 86        -0.00056
      31 <- 93         0.00052
      31 <- 99         0.00016
      31 <-103         0.00013
      31 <-106         0.00023
      31 <-107         0.00012
      31 <-109         0.00042
      31 <-111         0.00013
      31 <-112        -0.00015
      31 <-117        -0.00012
      31 <-120         0.00026
      31 <-124         0.00015
      31 <-126        -0.00014
      31 <-131        -0.00018
      31 <-132        -0.00020
      31 <-133        -0.00013
      31 <-134        -0.00012
      31 <-155         0.00022
      31 <-186         0.00022
      32 <- 42        -0.00041
      32 <- 43         0.00071
      32 <- 45        -0.00231
      32 <- 50        -0.00610
      32 <- 52         0.00261
      32 <- 54        -0.00674
      32 <- 57        -0.00195
      32 <- 60         0.00299
      32 <- 62        -0.00097
      32 <- 64        -0.00085
      32 <- 69        -0.00059
      32 <- 70        -0.00013
      32 <- 71         0.00171
      32 <- 73         0.00128
      32 <- 81         0.00209
      32 <- 83         0.00167
      32 <- 84         0.00127
      32 <- 87         0.00236
      32 <- 89        -0.00053
      32 <- 94         0.00013
      32 <- 96         0.00064
      32 <- 97         0.00208
      32 <-101        -0.00018
      32 <-102        -0.00139
      32 <-104        -0.00117
      32 <-113        -0.00030
      32 <-115         0.00063
      32 <-116        -0.00046
      32 <-119         0.00012
      32 <-122        -0.00010
      32 <-127         0.00039
      32 <-129         0.00028
      32 <-140        -0.00020
      32 <-142         0.00032
      32 <-150        -0.00021
      32 <-154         0.00034
      32 <-159        -0.00012
      32 <-161        -0.00013
      32 <-163         0.00010
      32 <-165        -0.00017
      32 <-171         0.00010
      32 <-179         0.00023
      32 <-182        -0.00010
      32 <-185         0.00105
      32 <-188        -0.00016
      33 <- 37        -0.01729
      33 <- 39         0.00586
      33 <- 40        -0.00279
      33 <- 41        -0.00028
      33 <- 44         0.00013
      33 <- 46         0.00089
      33 <- 63         0.00029
      33 <- 75         0.00049
      33 <- 76         0.00014
      33 <- 78        -0.00032
      33 <- 79         0.00101
      33 <- 91         0.00107
      33 <- 98         0.00051
      33 <- 99        -0.00019
      33 <-100        -0.00064
      33 <-103        -0.00017
      33 <-105         0.00060
      33 <-114         0.00031
      33 <-121         0.00018
      33 <-151        -0.00047
      33 <-152        -0.00031
      33 <-184         0.00027
      34 <- 38        -0.00089
      34 <- 62         0.00021
      34 <- 67        -0.00045
      34 <- 70        -0.00014
      34 <- 83         0.00033
      34 <- 87        -0.00058
      34 <- 89        -0.00160
      34 <- 90         0.00059
      34 <- 92         0.00017
      34 <- 94         0.00022
      34 <-115         0.00021
      34 <-116         0.00030
      34 <-123         0.00011
      34 <-149         0.00050
      34 <-150         0.00017
      34 <-153         0.00021
      34 <-183         0.00026
      35 <- 38        -0.00014
      35 <- 42         0.00012
      35 <- 43         0.00037
      35 <- 45        -0.00068
      35 <- 50        -0.00035
      35 <- 52         0.00056
      35 <- 54        -0.00080
      35 <- 57        -0.00052
      35 <- 60         0.00018
      35 <- 64        -0.00030
      35 <- 69        -0.00059
      35 <- 70        -0.00047
      35 <- 71         0.00044
      35 <- 73         0.00010
      35 <- 81         0.00043
      35 <- 83         0.00018
      35 <- 87         0.00061
      35 <- 89        -0.00021
      35 <- 92        -0.00016
      35 <- 96         0.00043
      35 <- 97         0.00047
      35 <-102        -0.00042
      35 <-104        -0.00037
      35 <-115         0.00019
      35 <-116        -0.00014
      35 <-142         0.00011
      35 <-154         0.00015
      35 <-185         0.00023
      36 <- 37         0.00042
      36 <- 39        -0.00038
      36 <- 40        -0.00126
      36 <- 41         0.00165
      36 <- 44         0.00060
      36 <- 47        -0.00476
      36 <- 48        -0.00021
      36 <- 49         0.00050
      36 <- 51         0.00030
      36 <- 53         0.00207
      36 <- 55         0.00072
      36 <- 56        -0.00021
      36 <- 58        -0.00159
      36 <- 59        -0.00040
      36 <- 65        -0.00019
      36 <- 72         0.00035
      36 <- 74        -0.00031
      36 <- 76         0.00010
      36 <- 77         0.00031
      36 <- 78        -0.00017
      36 <- 80        -0.00014
      36 <- 82         0.00026
      36 <- 85        -0.00080
      36 <- 86         0.00088
      36 <- 88        -0.00049
      36 <- 91         0.00012
      36 <- 93        -0.00083
      36 <- 95         0.00061
      36 <- 99        -0.00012
      36 <-103        -0.00011
      36 <-106        -0.00044
      36 <-107        -0.00017
      36 <-109        -0.00039
      36 <-112         0.00016
      36 <-117         0.00010
      36 <-120        -0.00030
      36 <-124        -0.00014
      36 <-126         0.00029
      36 <-131         0.00013
      36 <-132         0.00015
      36 <-155        -0.00020
      36 <-186        -0.00027
 SavETr:  write IOETrn=   770 NScale= 10 NData=  16 NLR=1 NState=    3 LETran=      62.

 **********************************************************************

            Population analysis using the SCF density.

 **********************************************************************

 Orbital symmetries:
       Occupied  (A") (A') (A') (A') (A') (A') (A") (A') (A") (A')
                 (A') (A") (A') (A') (A') (A") (A') (A") (A') (A')
                 (A") (A') (A') (A") (A') (A") (A") (A') (A') (A")
                 (A') (A") (A') (A") (A") (A')
       Virtual   (A') (A") (A') (A') (A') (A") (A") (A') (A") (A')
                 (A') (A') (A') (A") (A') (A") (A') (A") (A') (A')
                 (A") (A') (A') (A") (A') (A") (A') (A") (A') (A')
                 (A") (A') (A") (A") (A") (A') (A") (A') (A') (A')
                 (A') (A') (A') (A') (A") (A') (A") (A") (A') (A')
                 (A") (A') (A") (A") (A') (A") (A') (A") (A') (A")
                 (A") (A') (A') (A') (A") (A") (A') (A") (A') (A')
                 (A') (A") (A') (A") (A') (A') (A") (A') (A") (A")
                 (A') (A") (A") (A') (A') (A") (A") (A') (A') (A')
                 (A") (A') (A") (A") (A') (A') (A') (A') (A") (A")
                 (A') (A") (A') (A") (A') (A") (A') (A') (A') (A")
                 (A') (A') (A") (A") (A') (A') (A") (A") (A') (A')
                 (A") (A') (A") (A') (A") (A') (A") (A') (A") (A')
                 (A") (A') (A") (A') (A") (A') (A') (A') (A') (A')
                 (A") (A") (A") (A') (A') (A") (A") (A') (A") (A')
                 (A') (A") (A') (A") (A') (A') (A") (A') (A') (A')
                 (A') (A")
 The electronic state is 1-A'.
 Alpha  occ. eigenvalues --  -19.21489 -19.21486 -14.60649 -14.41441 -10.29789
 Alpha  occ. eigenvalues --  -10.27253 -10.25087 -10.25085 -10.24350 -10.24349
 Alpha  occ. eigenvalues --   -1.25965  -1.07907  -0.98365  -0.90679  -0.81712
 Alpha  occ. eigenvalues --   -0.79892  -0.71345  -0.66418  -0.61852  -0.57964
 Alpha  occ. eigenvalues --   -0.56516  -0.55325  -0.54750  -0.51865  -0.48019
 Alpha  occ. eigenvalues --   -0.47183  -0.46062  -0.43848  -0.42574  -0.37972
 Alpha  occ. eigenvalues --   -0.35524  -0.31490  -0.31419  -0.29689  -0.28962
 Alpha  occ. eigenvalues --   -0.24364
 Alpha virt. eigenvalues --   -0.06857  -0.02216   0.02133   0.03304   0.06263
 Alpha virt. eigenvalues --    0.06337   0.10917   0.12294   0.14790   0.15873
 Alpha virt. eigenvalues --    0.18146   0.22018   0.25386   0.26569   0.28172
 Alpha virt. eigenvalues --    0.28988   0.31443   0.34271   0.37554   0.38425
 Alpha virt. eigenvalues --    0.38839   0.39534   0.40173   0.43073   0.43111
 Alpha virt. eigenvalues --    0.44264   0.45059   0.45176   0.48482   0.50043
 Alpha virt. eigenvalues --    0.51376   0.53775   0.55007   0.57729   0.61472
 Alpha virt. eigenvalues --    0.62437   0.62686   0.62766   0.63400   0.65327
 Alpha virt. eigenvalues --    0.66800   0.68615   0.69419   0.72925   0.76307
 Alpha virt. eigenvalues --    0.78952   0.79067   0.80144   0.80827   0.83299
 Alpha virt. eigenvalues --    0.83465   0.84718   0.85912   0.88019   0.90448
 Alpha virt. eigenvalues --    0.90549   0.93275   0.99824   1.02362   1.02516
 Alpha virt. eigenvalues --    1.06570   1.06658   1.15028   1.18382   1.18510
 Alpha virt. eigenvalues --    1.19985   1.20553   1.21292   1.22243   1.30444
 Alpha virt. eigenvalues --    1.36025   1.42673   1.43127   1.44975   1.55889
 Alpha virt. eigenvalues --    1.59321   1.61795   1.64878   1.69504   1.69606
 Alpha virt. eigenvalues --    1.73676   1.75483   1.76240   1.77184   1.81532
 Alpha virt. eigenvalues --    1.86319   1.88000   1.89937   1.91222   1.96234
 Alpha virt. eigenvalues --    1.99743   2.01234   2.05994   2.12954   2.15956
 Alpha virt. eigenvalues --    2.17010   2.24422   2.31075   2.31889   2.32617
 Alpha virt. eigenvalues --    2.33267   2.36750   2.42085   2.44679   2.51084
 Alpha virt. eigenvalues --    2.57378   2.57514   2.60667   2.69002   2.69970
 Alpha virt. eigenvalues --    2.72382   2.77062   2.81360   2.83178   2.83626
 Alpha virt. eigenvalues --    2.86539   2.86576   2.89406   2.92423   3.04943
 Alpha virt. eigenvalues --    3.07189   3.14211   3.16471   3.25075   3.27222
 Alpha virt. eigenvalues --    3.27327   3.32063   3.33496   3.34561   3.40538
 Alpha virt. eigenvalues --    3.41515   3.51093   3.53989   3.59854   3.68960
 Alpha virt. eigenvalues --    3.70816   3.76017   3.77981   3.80168   3.94250
 Alpha virt. eigenvalues --    3.96949   4.15351   4.49376   4.64066   4.74093
 Alpha virt. eigenvalues --    4.80499   4.88221   4.89813   4.97770   5.03861
 Alpha virt. eigenvalues --    5.63420   6.07997  23.32401  23.88587  23.96263
 Alpha virt. eigenvalues --   24.10001  24.17277  24.24395  35.50768  35.59068
 Alpha virt. eigenvalues --   49.97637  50.11930
          Condensed to atoms (all electrons):
               1          2          3          4          5          6
     1  C    5.069051   0.498647  -0.012318  -0.038387  -0.085535   0.420171
     2  C    0.498647   5.099645   0.467055  -0.061294  -0.038387  -0.037421
     3  C   -0.012318   0.467055   4.687356   0.467055  -0.012318  -0.064978
     4  C   -0.038387  -0.061294   0.467055   5.099645   0.498647  -0.037421
     5  C   -0.085535  -0.038387  -0.012318   0.498647   5.069051   0.420171
     6  C    0.420171  -0.037421  -0.064978  -0.037421   0.420171   5.273616
     7  H    0.378119  -0.034235   0.006538  -0.001340   0.007753  -0.040919
     8  H   -0.030838   0.394235  -0.055263   0.006151  -0.000600   0.006699
     9  H   -0.000600   0.006151  -0.055263   0.394235  -0.030838   0.006699
    10  H    0.007753  -0.001340   0.006538  -0.034235   0.378119  -0.040919
    11  N    0.005593  -0.061817   0.289363  -0.061817   0.005593   0.000027
    12  H    0.000393  -0.003218  -0.042772   0.005578  -0.000388  -0.000001
    13  H   -0.000388   0.005578  -0.042772  -0.003218   0.000393  -0.000001
    14  N   -0.039064   0.005955  -0.000601   0.005955  -0.039064   0.215404
    15  O    0.010675  -0.000181   0.000095   0.001526   0.023296  -0.154273
    16  O    0.023296   0.001526   0.000095  -0.000181   0.010675  -0.154273
               7          8          9         10         11         12
     1  C    0.378119  -0.030838  -0.000600   0.007753   0.005593   0.000393
     2  C   -0.034235   0.394235   0.006151  -0.001340  -0.061817  -0.003218
     3  C    0.006538  -0.055263  -0.055263   0.006538   0.289363  -0.042772
     4  C   -0.001340   0.006151   0.394235  -0.034235  -0.061817   0.005578
     5  C    0.007753  -0.000600  -0.030838   0.378119   0.005593  -0.000388
     6  C   -0.040919   0.006699   0.006699  -0.040919   0.000027  -0.000001
     7  H    0.423994  -0.007114   0.000056  -0.000304  -0.000121  -0.000034
     8  H   -0.007114   0.472804  -0.000333   0.000056  -0.005384   0.003757
     9  H    0.000056  -0.000333   0.472804  -0.007114  -0.005384  -0.000380
    10  H   -0.000304   0.000056  -0.007114   0.423994  -0.000121   0.000018
    11  N   -0.000121  -0.005384  -0.005384  -0.000121   7.034370   0.341765
    12  H   -0.000034   0.003757  -0.000380   0.000018   0.341765   0.367164
    13  H    0.000018  -0.000380   0.003757  -0.000034   0.341765  -0.029022
    14  N   -0.010526  -0.000108  -0.000108  -0.010526   0.000000   0.000000
    15  O    0.000824   0.000004  -0.000067   0.024847   0.000000   0.000000
    16  O    0.024847  -0.000067   0.000004   0.000824   0.000000   0.000000
              13         14         15         16
     1  C   -0.000388  -0.039064   0.010675   0.023296
     2  C    0.005578   0.005955  -0.000181   0.001526
     3  C   -0.042772  -0.000601   0.000095   0.000095
     4  C   -0.003218   0.005955   0.001526  -0.000181
     5  C    0.000393  -0.039064   0.023296   0.010675
     6  C   -0.000001   0.215404  -0.154273  -0.154273
     7  H    0.000018  -0.010526   0.000824   0.024847
     8  H   -0.000380  -0.000108   0.000004  -0.000067
     9  H    0.003757  -0.000108  -0.000067   0.000004
    10  H   -0.000034  -0.010526   0.024847   0.000824
    11  N    0.341765   0.000000   0.000000   0.000000
    12  H   -0.029022   0.000000   0.000000   0.000000
    13  H    0.367164   0.000000   0.000000   0.000000
    14  N    0.000000   6.118084   0.296786   0.296786
    15  O    0.000000   0.296786   8.212002  -0.123634
    16  O    0.000000   0.296786  -0.123634   8.212002
 Mulliken charges:
               1
     1  C   -0.206570
     2  C   -0.240899
     3  C    0.362192
     4  C   -0.240899
     5  C   -0.206570
     6  C    0.187417
     7  H    0.252444
     8  H    0.216380
     9  H    0.216380
    10  H    0.252444
    11  N   -0.883833
    12  H    0.357141
    13  H    0.357141
    14  N    0.161030
    15  O   -0.291900
    16  O   -0.291900
 Sum of Mulliken charges =   0.00000
 Mulliken charges with hydrogens summed into heavy atoms:
               1
     1  C    0.045874
     2  C   -0.024519
     3  C    0.362192
     4  C   -0.024519
     5  C    0.045874
     6  C    0.187417
    11  N   -0.169550
    14  N    0.161030
    15  O   -0.291900
    16  O   -0.291900
 Electronic spatial extent (au):  <R**2>=           1544.9821
 Charge=              0.0000 electrons
 Dipole moment (field-independent basis, Debye):
    X=              0.8294    Y=             -7.0970    Z=              0.0000  Tot=              7.1453
 Quadrupole moment (field-independent basis, Debye-Ang):
   XX=            -59.7877   YY=            -55.0010   ZZ=            -52.0532
   XY=             -3.6104   XZ=              0.0000   YZ=              0.0000
 Traceless Quadrupole moment (field-independent basis, Debye-Ang):
   XX=             -4.1737   YY=              0.6130   ZZ=              3.5607
   XY=             -3.6104   XZ=              0.0000   YZ=              0.0000
 Octapole moment (field-independent basis, Debye-Ang**2):
  XXX=              0.6513  YYY=            -93.8414  ZZZ=              0.0000  XYY=             14.7149
  XXY=             13.2055  XXZ=              0.0000  XZZ=              0.5241  YZZ=            -15.6998
  YYZ=              0.0000  XYZ=              0.0000
 Hexadecapole moment (field-independent basis, Debye-Ang**3):
 XXXX=            -60.0280 YYYY=          -1327.1424 ZZZZ=           -352.4047 XXXY=             -1.8792
 XXXZ=              0.0000 YYYX=            -59.9475 YYYZ=              0.0000 ZZZX=              0.0000
 ZZZY=              0.0000 XXYY=           -264.3737 XXZZ=            -80.5547 YYZZ=           -290.9320
 XXYZ=              0.0000 YYXZ=              0.0000 ZZXY=             -2.3752
 N-N= 4.975995431410D+02 E-N=-2.145213771838D+03  KE= 4.902443617631D+02
 Symmetry A'   KE= 3.274169321533D+02
 Symmetry A"   KE= 1.628274296098D+02

 Test job not archived.
 1|1|UNPC-X500|SP|RPBE1PBE TD-FC|6-311G(d)|C6H6N2O2|SOBEREVA|15-Dec-201
 7|0||# PBE1PBE/6-311G* TD IOp(9/40=4)||PBE1PBE/6-311G* opted||0,1|C,0,
 0.003279,-0.022698,1.208952|C,0,0.003279,1.35685,1.208468|C,0,0.00222,
 2.074407,0.|C,0,0.003279,1.35685,-1.208468|C,0,0.003279,-0.022698,-1.2
 08952|C,0,0.002956,-0.708053,0.|H,0,0.002297,-0.584212,2.134941|H,0,0.
 00833,1.894941,2.15208|H,0,0.00833,1.894941,-2.15208|H,0,0.002297,-0.5
 84212,-2.134941|N,0,0.047761,3.443794,0.|H,0,-0.214094,3.921723,0.8449
 71|H,0,-0.214094,3.921723,-0.844971|N,0,-0.000588,-2.162345,0.|O,0,-0.
 002065,-2.727687,-1.07769|O,0,-0.002065,-2.727687,1.07769||Version=IA3
 2W-G09RevD.01|State=1-A'|HF=-491.6747794|RMSD=6.013e-009|PG=CS [SG(C2N
 2),X(C4H6O2)]||@


 WE HAVE LEFT UNDONE THOSE THINGS WHICH WE OUGHT TO HAVE DONE,
 AND WE HAVE DONE THOSE THINGS WHICH WE OUGHT NOT TO HAVE DONE.
                   BOOK OF COMMON PRAYER                      
 Job cpu time:       0 days  0 hours  1 minutes 40.0 seconds.
 File lengths (MBytes):  RWF=     62 Int=      0 D2E=      0 Chk=      6 Scr=      1
 Normal termination of Gaussian 09 at Fri Dec 15 18:12:40 2017.
