PBE1PBE/6-311G* opted                                                   
SP        RPBE1PBE TD-FC                                              6-311G(d)           
Number of atoms                            I               16
Info1-9                                    I   N=           9
          24          23           0           0           0         111
           1         218        -301
Charge                                     I                0
Multiplicity                               I                1
Number of electrons                        I               72
Number of alpha electrons                  I               36
Number of beta electrons                   I               36
Number of basis functions                  I              198
Number of independent functions            I              198
Number of point charges in /Mol/           I                0
Number of translation vectors              I                0
Atomic numbers                             I   N=          16
           6           6           6           6           6           6
           1           1           1           1           7           1
           1           7           8           8
Nuclear charges                            R   N=          16
  6.00000000E+00  6.00000000E+00  6.00000000E+00  6.00000000E+00  6.00000000E+00
  6.00000000E+00  1.00000000E+00  1.00000000E+00  1.00000000E+00  1.00000000E+00
  7.00000000E+00  1.00000000E+00  1.00000000E+00  7.00000000E+00  8.00000000E+00
  8.00000000E+00
Current cartesian coordinates              R   N=          48
 -6.19670070E-03  4.28930825E-02  2.28458819E+00 -6.19670070E-03 -2.56407482E+00
  2.28367356E+00 -4.19548072E-03 -3.92006104E+00 -1.70018364E-18 -6.19670070E-03
 -2.56407482E+00 -2.28367356E+00 -6.19670070E-03  4.28930825E-02 -2.28458819E+00
 -5.58631916E-03  1.33802634E+00  5.80322484E-19 -4.34098964E-03  1.10400076E+00
  4.03445380E+00 -1.57417074E-02 -3.58091945E+00  4.06684182E+00 -1.57417074E-02
 -3.58091945E+00 -4.06684182E+00 -4.34098964E-03  1.10400076E+00 -4.03445380E+00
 -9.02554985E-02 -6.50782744E+00 -2.82250553E-18  4.04578738E-01 -7.41098236E+00
  1.59676378E+00  4.04578738E-01 -7.41098236E+00 -1.59676378E+00  1.11087026E-03
  4.08623993E+00  1.77225875E-18  3.90199576E-03  5.15458148E+00 -2.03653896E+00
  3.90199576E-03  5.15458148E+00  2.03653896E+00
Force Field                                I                0
Int Atom Types                             I   N=          16
           0           0           0           0           0           0
           0           0           0           0           0           0
           0           0           0           0
MM charges                                 R   N=          16
  0.00000000E+00  0.00000000E+00  0.00000000E+00  0.00000000E+00  0.00000000E+00
  0.00000000E+00  0.00000000E+00  0.00000000E+00  0.00000000E+00  0.00000000E+00
  0.00000000E+00  0.00000000E+00  0.00000000E+00  0.00000000E+00  0.00000000E+00
  0.00000000E+00
Integer atomic weights                     I   N=          16
          12          12          12          12          12          12
           1           1           1           1          14           1
           1          14          16          16
Real atomic weights                        R   N=          16
  1.20000000E+01  1.20000000E+01  1.20000000E+01  1.20000000E+01  1.20000000E+01
  1.20000000E+01  1.00782504E+00  1.00782504E+00  1.00782504E+00  1.00782504E+00
  1.40030740E+01  1.00782504E+00  1.00782504E+00  1.40030740E+01  1.59949146E+01
  1.59949146E+01
Atom fragment info                         I   N=          16
           0           0           0           0           0           0
           0           0           0           0           0           0
           0           0           0           0
Atom residue num                           I   N=          16
           0           0           0           0           0           0
           0           0           0           0           0           0
           0           0           0           0
Nuclear spins                              I   N=          16
           0           0           0           0           0           0
           1           1           1           1           2           1
           1           2           0           0
Nuclear ZEff                               R   N=          16
 -3.60000000E+00 -3.60000000E+00 -3.60000000E+00 -3.60000000E+00 -3.60000000E+00
 -3.60000000E+00 -1.00000000E+00 -1.00000000E+00 -1.00000000E+00 -1.00000000E+00
 -4.55000000E+00 -1.00000000E+00 -1.00000000E+00 -4.55000000E+00 -5.60000000E+00
 -5.60000000E+00
Nuclear ZNuc                               R   N=          16
  6.00000000E+00  6.00000000E+00  6.00000000E+00  6.00000000E+00  6.00000000E+00
  6.00000000E+00  1.00000000E+00  1.00000000E+00  1.00000000E+00  1.00000000E+00
  7.00000000E+00  1.00000000E+00  1.00000000E+00  7.00000000E+00  8.00000000E+00
  8.00000000E+00
Nuclear QMom                               R   N=          16
  0.00000000E+00  0.00000000E+00  0.00000000E+00  0.00000000E+00  0.00000000E+00
  0.00000000E+00  0.00000000E+00  0.00000000E+00  0.00000000E+00  0.00000000E+00
  2.04400000E+00  0.00000000E+00  0.00000000E+00  2.04400000E+00  0.00000000E+00
  0.00000000E+00
Nuclear GFac                               R   N=          16
  0.00000000E+00  0.00000000E+00  0.00000000E+00  0.00000000E+00  0.00000000E+00
  0.00000000E+00  2.79284600E+00  2.79284600E+00  2.79284600E+00  2.79284600E+00
  4.03761000E-01  2.79284600E+00  2.79284600E+00  4.03761000E-01  0.00000000E+00
  0.00000000E+00
MicOpt                                     I   N=          16
          -1          -1          -1          -1          -1          -1
          -1          -1          -1          -1          -1          -1
          -1          -1          -1          -1
Number of contracted shells                I               68
Number of primitive shells                 I              150
Pure/Cartesian d shells                    I                0
Pure/Cartesian f shells                    I                0
Highest angular momentum                   I                2
Largest degree of contraction              I                6
Shell types                                I   N=          68
           0          -1          -1          -1          -2           0
          -1          -1          -1          -2           0          -1
          -1          -1          -2           0          -1          -1
          -1          -2           0          -1          -1          -1
          -2           0          -1          -1          -1          -2
           0           0           0           0           0           0
           0           0           0           0           0           0
           0          -1          -1          -1          -2           0
           0           0           0           0           0           0
          -1          -1          -1          -2           0          -1
          -1          -1          -2           0          -1          -1
          -1          -2
Number of primitives per shell             I   N=          68
           6           3           1           1           1           6
           3           1           1           1           6           3
           1           1           1           6           3           1
           1           1           6           3           1           1
           1           6           3           1           1           1
           3           1           1           3           1           1
           3           1           1           3           1           1
           6           3           1           1           1           3
           1           1           3           1           1           6
           3           1           1           1           6           3
           1           1           1           6           3           1
           1           1
Shell to atom map                          I   N=          68
           1           1           1           1           1           2
           2           2           2           2           3           3
           3           3           3           4           4           4
           4           4           5           5           5           5
           5           6           6           6           6           6
           7           7           7           8           8           8
           9           9           9          10          10          10
          11          11          11          11          11          12
          12          12          13          13          13          14
          14          14          14          14          15          15
          15          15          15          16          16          16
          16          16
Primitive exponents                        R   N=         150
  4.56324000E+03  6.82024000E+02  1.54973000E+02  4.44553000E+01  1.30290000E+01
  1.82773000E+00  2.09642000E+01  4.80331000E+00  1.45933000E+00  4.83456000E-01
  1.45585000E-01  6.26000000E-01  4.56324000E+03  6.82024000E+02  1.54973000E+02
  4.44553000E+01  1.30290000E+01  1.82773000E+00  2.09642000E+01  4.80331000E+00
  1.45933000E+00  4.83456000E-01  1.45585000E-01  6.26000000E-01  4.56324000E+03
  6.82024000E+02  1.54973000E+02  4.44553000E+01  1.30290000E+01  1.82773000E+00
  2.09642000E+01  4.80331000E+00  1.45933000E+00  4.83456000E-01  1.45585000E-01
  6.26000000E-01  4.56324000E+03  6.82024000E+02  1.54973000E+02  4.44553000E+01
  1.30290000E+01  1.82773000E+00  2.09642000E+01  4.80331000E+00  1.45933000E+00
  4.83456000E-01  1.45585000E-01  6.26000000E-01  4.56324000E+03  6.82024000E+02
  1.54973000E+02  4.44553000E+01  1.30290000E+01  1.82773000E+00  2.09642000E+01
  4.80331000E+00  1.45933000E+00  4.83456000E-01  1.45585000E-01  6.26000000E-01
  4.56324000E+03  6.82024000E+02  1.54973000E+02  4.44553000E+01  1.30290000E+01
  1.82773000E+00  2.09642000E+01  4.80331000E+00  1.45933000E+00  4.83456000E-01
  1.45585000E-01  6.26000000E-01  3.38650000E+01  5.09479000E+00  1.15879000E+00
  3.25840000E-01  1.02741000E-01  3.38650000E+01  5.09479000E+00  1.15879000E+00
  3.25840000E-01  1.02741000E-01  3.38650000E+01  5.09479000E+00  1.15879000E+00
  3.25840000E-01  1.02741000E-01  3.38650000E+01  5.09479000E+00  1.15879000E+00
  3.25840000E-01  1.02741000E-01  6.29348000E+03  9.49044000E+02  2.18776000E+02
  6.36916000E+01  1.88282000E+01  2.72023000E+00  3.06331000E+01  7.02614000E+00
  2.11205000E+00  6.84009000E-01  2.00878000E-01  9.13000000E-01  3.38650000E+01
  5.09479000E+00  1.15879000E+00  3.25840000E-01  1.02741000E-01  3.38650000E+01
  5.09479000E+00  1.15879000E+00  3.25840000E-01  1.02741000E-01  6.29348000E+03
  9.49044000E+02  2.18776000E+02  6.36916000E+01  1.88282000E+01  2.72023000E+00
  3.06331000E+01  7.02614000E+00  2.11205000E+00  6.84009000E-01  2.00878000E-01
  9.13000000E-01  8.58850000E+03  1.29723000E+03  2.99296000E+02  8.73771000E+01
  2.56789000E+01  3.74004000E+00  4.21175000E+01  9.62837000E+00  2.85332000E+00
  9.05661000E-01  2.55611000E-01  1.29200000E+00  8.58850000E+03  1.29723000E+03
  2.99296000E+02  8.73771000E+01  2.56789000E+01  3.74004000E+00  4.21175000E+01
  9.62837000E+00  2.85332000E+00  9.05661000E-01  2.55611000E-01  1.29200000E+00
Contraction coefficients                   R   N=         150
  1.96665025E-03  1.52306019E-02  7.61269097E-02  2.60801033E-01  6.16462078E-01
  2.21006028E-01  1.14660081E-01  9.19999648E-01 -3.03068213E-03  1.00000000E+00
  1.00000000E+00  1.00000000E+00  1.96665025E-03  1.52306019E-02  7.61269097E-02
  2.60801033E-01  6.16462078E-01  2.21006028E-01  1.14660081E-01  9.19999648E-01
 -3.03068213E-03  1.00000000E+00  1.00000000E+00  1.00000000E+00  1.96665025E-03
  1.52306019E-02  7.61269097E-02  2.60801033E-01  6.16462078E-01  2.21006028E-01
  1.14660081E-01  9.19999648E-01 -3.03068213E-03  1.00000000E+00  1.00000000E+00
  1.00000000E+00  1.96665025E-03  1.52306019E-02  7.61269097E-02  2.60801033E-01
  6.16462078E-01  2.21006028E-01  1.14660081E-01  9.19999648E-01 -3.03068213E-03
  1.00000000E+00  1.00000000E+00  1.00000000E+00  1.96665025E-03  1.52306019E-02
  7.61269097E-02  2.60801033E-01  6.16462078E-01  2.21006028E-01  1.14660081E-01
  9.19999648E-01 -3.03068213E-03  1.00000000E+00  1.00000000E+00  1.00000000E+00
  1.96665025E-03  1.52306019E-02  7.61269097E-02  2.60801033E-01  6.16462078E-01
  2.21006028E-01  1.14660081E-01  9.19999648E-01 -3.03068213E-03  1.00000000E+00
  1.00000000E+00  1.00000000E+00  2.54938145E-02  1.90373109E-01  8.52161486E-01
  1.00000000E+00  1.00000000E+00  2.54938145E-02  1.90373109E-01  8.52161486E-01
  1.00000000E+00  1.00000000E+00  2.54938145E-02  1.90373109E-01  8.52161486E-01
  1.00000000E+00  1.00000000E+00  2.54938145E-02  1.90373109E-01  8.52161486E-01
  1.00000000E+00  1.00000000E+00  1.96978815E-03  1.49612859E-02  7.35005308E-02
  2.48936766E-01  6.02459433E-01  2.56201759E-01  1.11906080E-01  9.21666655E-01
 -2.56919183E-03  1.00000000E+00  1.00000000E+00  1.00000000E+00  2.54938145E-02
  1.90373109E-01  8.52161486E-01  1.00000000E+00  1.00000000E+00  2.54938145E-02
  1.90373109E-01  8.52161486E-01  1.00000000E+00  1.00000000E+00  1.96978815E-03
  1.49612859E-02  7.35005308E-02  2.48936766E-01  6.02459433E-01  2.56201759E-01
  1.11906080E-01  9.21666655E-01 -2.56919183E-03  1.00000000E+00  1.00000000E+00
  1.00000000E+00  1.89515008E-03  1.43859006E-02  7.07320031E-02  2.40001011E-01
  5.94797026E-01  2.80802012E-01  1.13889012E-01  9.20811101E-01 -3.27447036E-03
  1.00000000E+00  1.00000000E+00  1.00000000E+00  1.89515008E-03  1.43859006E-02
  7.07320031E-02  2.40001011E-01  5.94797026E-01  2.80802012E-01  1.13889012E-01
  9.20811101E-01 -3.27447036E-03  1.00000000E+00  1.00000000E+00  1.00000000E+00
P(S=P) Contraction coefficients            R   N=         150
  0.00000000E+00  0.00000000E+00  0.00000000E+00  0.00000000E+00  0.00000000E+00
  0.00000000E+00  4.02486927E-02  2.37593957E-01  8.15853851E-01  1.00000000E+00
  1.00000000E+00  0.00000000E+00  0.00000000E+00  0.00000000E+00  0.00000000E+00
  0.00000000E+00  0.00000000E+00  0.00000000E+00  4.02486927E-02  2.37593957E-01
  8.15853851E-01  1.00000000E+00  1.00000000E+00  0.00000000E+00  0.00000000E+00
  0.00000000E+00  0.00000000E+00  0.00000000E+00  0.00000000E+00  0.00000000E+00
  4.02486927E-02  2.37593957E-01  8.15853851E-01  1.00000000E+00  1.00000000E+00
  0.00000000E+00  0.00000000E+00  0.00000000E+00  0.00000000E+00  0.00000000E+00
  0.00000000E+00  0.00000000E+00  4.02486927E-02  2.37593957E-01  8.15853851E-01
  1.00000000E+00  1.00000000E+00  0.00000000E+00  0.00000000E+00  0.00000000E+00
  0.00000000E+00  0.00000000E+00  0.00000000E+00  0.00000000E+00  4.02486927E-02
  2.37593957E-01  8.15853851E-01  1.00000000E+00  1.00000000E+00  0.00000000E+00
  0.00000000E+00  0.00000000E+00  0.00000000E+00  0.00000000E+00  0.00000000E+00
  0.00000000E+00  4.02486927E-02  2.37593957E-01  8.15853851E-01  1.00000000E+00
  1.00000000E+00  0.00000000E+00  0.00000000E+00  0.00000000E+00  0.00000000E+00
  0.00000000E+00  0.00000000E+00  0.00000000E+00  0.00000000E+00  0.00000000E+00
  0.00000000E+00  0.00000000E+00  0.00000000E+00  0.00000000E+00  0.00000000E+00
  0.00000000E+00  0.00000000E+00  0.00000000E+00  0.00000000E+00  0.00000000E+00
  0.00000000E+00  0.00000000E+00  0.00000000E+00  0.00000000E+00  0.00000000E+00
  0.00000000E+00  0.00000000E+00  0.00000000E+00  3.83119186E-02  2.37403116E-01
  8.17592398E-01  1.00000000E+00  1.00000000E+00  0.00000000E+00  0.00000000E+00
  0.00000000E+00  0.00000000E+00  0.00000000E+00  0.00000000E+00  0.00000000E+00
  0.00000000E+00  0.00000000E+00  0.00000000E+00  0.00000000E+00  0.00000000E+00
  0.00000000E+00  0.00000000E+00  0.00000000E+00  0.00000000E+00  0.00000000E+00
  3.83119186E-02  2.37403116E-01  8.17592398E-01  1.00000000E+00  1.00000000E+00
  0.00000000E+00  0.00000000E+00  0.00000000E+00  0.00000000E+00  0.00000000E+00
  0.00000000E+00  0.00000000E+00  3.65113974E-02  2.37152983E-01  8.19701941E-01
  1.00000000E+00  1.00000000E+00  0.00000000E+00  0.00000000E+00  0.00000000E+00
  0.00000000E+00  0.00000000E+00  0.00000000E+00  0.00000000E+00  3.65113974E-02
  2.37152983E-01  8.19701941E-01  1.00000000E+00  1.00000000E+00  0.00000000E+00
Coordinates of each shell                  R   N=         204
 -6.19670070E-03  4.28930825E-02  2.28458819E+00 -6.19670070E-03  4.28930825E-02
  2.28458819E+00 -6.19670070E-03  4.28930825E-02  2.28458819E+00 -6.19670070E-03
  4.28930825E-02  2.28458819E+00 -6.19670070E-03  4.28930825E-02  2.28458819E+00
 -6.19670070E-03 -2.56407482E+00  2.28367356E+00 -6.19670070E-03 -2.56407482E+00
  2.28367356E+00 -6.19670070E-03 -2.56407482E+00  2.28367356E+00 -6.19670070E-03
 -2.56407482E+00  2.28367356E+00 -6.19670070E-03 -2.56407482E+00  2.28367356E+00
 -4.19548072E-03 -3.92006104E+00 -8.50091818E-19 -4.19548072E-03 -3.92006104E+00
 -8.50091818E-19 -4.19548072E-03 -3.92006104E+00 -8.50091818E-19 -4.19548072E-03
 -3.92006104E+00 -8.50091818E-19 -4.19548072E-03 -3.92006104E+00 -8.50091818E-19
 -6.19670070E-03 -2.56407482E+00 -2.28367356E+00 -6.19670070E-03 -2.56407482E+00
 -2.28367356E+00 -6.19670070E-03 -2.56407482E+00 -2.28367356E+00 -6.19670070E-03
 -2.56407482E+00 -2.28367356E+00 -6.19670070E-03 -2.56407482E+00 -2.28367356E+00
 -6.19670070E-03  4.28930825E-02 -2.28458819E+00 -6.19670070E-03  4.28930825E-02
 -2.28458819E+00 -6.19670070E-03  4.28930825E-02 -2.28458819E+00 -6.19670070E-03
  4.28930825E-02 -2.28458819E+00 -6.19670070E-03  4.28930825E-02 -2.28458819E+00
 -5.58631916E-03  1.33802634E+00  2.90161242E-19 -5.58631916E-03  1.33802634E+00
  2.90161242E-19 -5.58631916E-03  1.33802634E+00  2.90161242E-19 -5.58631916E-03
  1.33802634E+00  2.90161242E-19 -5.58631916E-03  1.33802634E+00  2.90161242E-19
 -4.34098964E-03  1.10400076E+00  4.03445380E+00 -4.34098964E-03  1.10400076E+00
  4.03445380E+00 -4.34098964E-03  1.10400076E+00  4.03445380E+00 -1.57417074E-02
 -3.58091945E+00  4.06684182E+00 -1.57417074E-02 -3.58091945E+00  4.06684182E+00
 -1.57417074E-02 -3.58091945E+00  4.06684182E+00 -1.57417074E-02 -3.58091945E+00
 -4.06684182E+00 -1.57417074E-02 -3.58091945E+00 -4.06684182E+00 -1.57417074E-02
 -3.58091945E+00 -4.06684182E+00 -4.34098964E-03  1.10400076E+00 -4.03445380E+00
 -4.34098964E-03  1.10400076E+00 -4.03445380E+00 -4.34098964E-03  1.10400076E+00
 -4.03445380E+00 -9.02554985E-02 -6.50782744E+00 -1.41125277E-18 -9.02554985E-02
 -6.50782744E+00 -1.41125277E-18 -9.02554985E-02 -6.50782744E+00 -1.41125277E-18
 -9.02554985E-02 -6.50782744E+00 -1.41125277E-18 -9.02554985E-02 -6.50782744E+00
 -1.41125277E-18  4.04578738E-01 -7.41098236E+00  1.59676378E+00  4.04578738E-01
 -7.41098236E+00  1.59676378E+00  4.04578738E-01 -7.41098236E+00  1.59676378E+00
  4.04578738E-01 -7.41098236E+00 -1.59676378E+00  4.04578738E-01 -7.41098236E+00
 -1.59676378E+00  4.04578738E-01 -7.41098236E+00 -1.59676378E+00  1.11087026E-03
  4.08623993E+00  8.86129376E-19  1.11087026E-03  4.08623993E+00  8.86129376E-19
  1.11087026E-03  4.08623993E+00  8.86129376E-19  1.11087026E-03  4.08623993E+00
  8.86129376E-19  1.11087026E-03  4.08623993E+00  8.86129376E-19  3.90199576E-03
  5.15458148E+00 -2.03653896E+00  3.90199576E-03  5.15458148E+00 -2.03653896E+00
  3.90199576E-03  5.15458148E+00 -2.03653896E+00  3.90199576E-03  5.15458148E+00
 -2.03653896E+00  3.90199576E-03  5.15458148E+00 -2.03653896E+00  3.90199576E-03
  5.15458148E+00  2.03653896E+00  3.90199576E-03  5.15458148E+00  2.03653896E+00
  3.90199576E-03  5.15458148E+00  2.03653896E+00  3.90199576E-03  5.15458148E+00
  2.03653896E+00  3.90199576E-03  5.15458148E+00  2.03653896E+00
Constraint Structure                       R   N=          48
 -6.19670070E-03  4.28930825E-02  2.28458819E+00 -6.19670070E-03 -2.56407482E+00
  2.28367356E+00 -4.19548072E-03 -3.92006104E+00 -8.50091818E-19 -6.19670070E-03
 -2.56407482E+00 -2.28367356E+00 -6.19670070E-03  4.28930825E-02 -2.28458819E+00
 -5.58631916E-03  1.33802634E+00  2.90161242E-19 -4.34098964E-03  1.10400076E+00
  4.03445380E+00 -1.57417074E-02 -3.58091945E+00  4.06684182E+00 -1.57417074E-02
 -3.58091945E+00 -4.06684182E+00 -4.34098964E-03  1.10400076E+00 -4.03445380E+00
 -9.02554985E-02 -6.50782744E+00 -1.41125277E-18  4.04578738E-01 -7.41098236E+00
  1.59676378E+00  4.04578738E-01 -7.41098236E+00 -1.59676378E+00  1.11087026E-03
  4.08623993E+00  8.86129376E-19  3.90199576E-03  5.15458148E+00 -2.03653896E+00
  3.90199576E-03  5.15458148E+00  2.03653896E+00
Num ILSW                                   I              100
ILSW                                       I   N=         100
           0           0           0           0           2           0
           0           0           0           0        1009          -1
           0           0           0           0           0           0
           0           0           1           0           0           0
           1           0           0           0           0           0
           0           0      100000           0          -1           0
           0           0           0           0           0           0
           0           0           0           1           0           0
           0           0           1           0           0           0
           0           0           4          41           0           0
           0           0          13           0           0           0
           0           0           0           0           0           0
           0           0           0           0           0           0
           0           0           0           0           0           0
           0           0           0           0           0           0
           0           0           0           0           0           0
           0           0           0           0
Num RLSW                                   I               41
RLSW                                       R   N=          41
  7.50000000E-01  7.50000000E-01  1.00000000E+00  1.00000000E+00  2.50000000E-01
  0.00000000E+00  0.00000000E+00  1.00000000E+00  0.00000000E+00  0.00000000E+00
  0.00000000E+00  0.00000000E+00  1.00000000E+00  0.00000000E+00  0.00000000E+00
  0.00000000E+00  0.00000000E+00  1.00000000E+00  0.00000000E+00  0.00000000E+00
  0.00000000E+00  0.00000000E+00  1.00000000E+00  0.00000000E+00  0.00000000E+00
  0.00000000E+00  0.00000000E+00  1.00000000E+00  0.00000000E+00  0.00000000E+00
  0.00000000E+00  0.00000000E+00  1.00000000E+00  0.00000000E+00  0.00000000E+00
  0.00000000E+00  0.00000000E+00  0.00000000E+00  1.00000000E+00  1.00000000E+00
  0.00000000E+00
MxBond                                     I                3
NBond                                      I   N=          16
           3           3           3           3           3           3
           1           1           1           1           3           1
           1           3           1           1
IBond                                      I   N=          48
           2           6           7           1           3           8
           2           4          11           3           5           9
           4           6          10           1           5          14
           1           0           0           2           0           0
           4           0           0           5           0           0
           3          12          13          11           0           0
          11           0           0           6          15          16
          14           0           0          14           0           0
RBond                                      R   N=          48
  1.50000000E+00  1.50000000E+00  1.00000000E+00  1.50000000E+00  1.50000000E+00
  1.00000000E+00  1.50000000E+00  1.50000000E+00  1.00000000E+00  1.50000000E+00
  1.50000000E+00  1.00000000E+00  1.50000000E+00  1.50000000E+00  1.00000000E+00
  1.50000000E+00  1.50000000E+00  1.00000000E+00  1.00000000E+00  0.00000000E+00
  0.00000000E+00  1.00000000E+00  0.00000000E+00  0.00000000E+00  1.00000000E+00
  0.00000000E+00  0.00000000E+00  1.00000000E+00  0.00000000E+00  0.00000000E+00
  1.00000000E+00  1.00000000E+00  1.00000000E+00  1.00000000E+00  0.00000000E+00
  0.00000000E+00  1.00000000E+00  0.00000000E+00  0.00000000E+00  1.00000000E+00
  2.00000000E+00  2.00000000E+00  2.00000000E+00  0.00000000E+00  0.00000000E+00
  2.00000000E+00  0.00000000E+00  0.00000000E+00
Virial Ratio                               R      2.002917764576711E+00
SCF Energy                                 R     -4.916747793957464E+02
CIS Energy                                 R     -4.915257363480594E+02
Total Energy                               R     -4.915257363480594E+02
Post-SCF wavefunction norm                 R      1.000000000000000E+00
RMS Density                                R      6.013237172196399E-09
External E-field                           R   N=          35
  0.00000000E+00  0.00000000E+00  0.00000000E+00  0.00000000E+00  0.00000000E+00
  0.00000000E+00  0.00000000E+00  0.00000000E+00  0.00000000E+00  0.00000000E+00
  0.00000000E+00  0.00000000E+00  0.00000000E+00  0.00000000E+00  0.00000000E+00
  0.00000000E+00  0.00000000E+00  0.00000000E+00  0.00000000E+00  0.00000000E+00
  0.00000000E+00  0.00000000E+00  0.00000000E+00  0.00000000E+00  0.00000000E+00
  0.00000000E+00  0.00000000E+00  0.00000000E+00  0.00000000E+00  0.00000000E+00
  0.00000000E+00  0.00000000E+00  0.00000000E+00  0.00000000E+00  0.00000000E+00
IOpCl                                      I                0
IROHF                                      I                0
Alpha Orbital Energies                     R   N=         198
 -1.92148859E+01 -1.92148560E+01 -1.46064852E+01 -1.44144075E+01 -1.02978893E+01
 -1.02725326E+01 -1.02508739E+01 -1.02508496E+01 -1.02435001E+01 -1.02434868E+01
 -1.25965477E+00 -1.07907151E+00 -9.83645657E-01 -9.06786350E-01 -8.17116974E-01
 -7.98920477E-01 -7.13453133E-01 -6.64178731E-01 -6.18517287E-01 -5.79635008E-01
 -5.65163093E-01 -5.53251931E-01 -5.47497076E-01 -5.18646489E-01 -4.80188706E-01
 -4.71833760E-01 -4.60618279E-01 -4.38479716E-01 -4.25742539E-01 -3.79716961E-01
 -3.55243796E-01 -3.14896970E-01 -3.14189062E-01 -2.96885374E-01 -2.89620297E-01
 -2.43638356E-01 -6.85711727E-02 -2.21645697E-02  2.13307623E-02  3.30433926E-02
  6.26322603E-02  6.33746000E-02  1.09174630E-01  1.22943491E-01  1.47902680E-01
  1.58730362E-01  1.81456304E-01  2.20183400E-01  2.53861968E-01  2.65687289E-01
  2.81724557E-01  2.89881319E-01  3.14426042E-01  3.42705681E-01  3.75537311E-01
  3.84250349E-01  3.88385421E-01  3.95337631E-01  4.01725816E-01  4.30733130E-01
  4.31109352E-01  4.42636969E-01  4.50589430E-01  4.51764757E-01  4.84822937E-01
  5.00431725E-01  5.13763508E-01  5.37750011E-01  5.50073294E-01  5.77290200E-01
  6.14717783E-01  6.24372076E-01  6.26863216E-01  6.27655634E-01  6.34000964E-01
  6.53266614E-01  6.68001210E-01  6.86154175E-01  6.94186968E-01  7.29254725E-01
  7.63065436E-01  7.89524585E-01  7.90672660E-01  8.01444380E-01  8.08273139E-01
  8.32988131E-01  8.34647270E-01  8.47184963E-01  8.59124992E-01  8.80186750E-01
  9.04480728E-01  9.05485564E-01  9.32748276E-01  9.98239439E-01  1.02362485E+00
  1.02516392E+00  1.06570425E+00  1.06657502E+00  1.15028219E+00  1.18382473E+00
  1.18510201E+00  1.19984789E+00  1.20552507E+00  1.21292439E+00  1.22242911E+00
  1.30444381E+00  1.36025013E+00  1.42673395E+00  1.43127451E+00  1.44975240E+00
  1.55888707E+00  1.59320682E+00  1.61795037E+00  1.64877639E+00  1.69504037E+00
  1.69606116E+00  1.73675753E+00  1.75482829E+00  1.76239629E+00  1.77184423E+00
  1.81532408E+00  1.86319499E+00  1.87999680E+00  1.89936900E+00  1.91222389E+00
  1.96234439E+00  1.99743316E+00  2.01234379E+00  2.05994462E+00  2.12954026E+00
  2.15955563E+00  2.17010473E+00  2.24422102E+00  2.31075300E+00  2.31889324E+00
  2.32616632E+00  2.33266824E+00  2.36750395E+00  2.42085495E+00  2.44678692E+00
  2.51083984E+00  2.57378310E+00  2.57514049E+00  2.60666801E+00  2.69002201E+00
  2.69969549E+00  2.72381706E+00  2.77061619E+00  2.81359573E+00  2.83178463E+00
  2.83625713E+00  2.86539120E+00  2.86576330E+00  2.89406022E+00  2.92422551E+00
  3.04943059E+00  3.07188605E+00  3.14210841E+00  3.16470942E+00  3.25075122E+00
  3.27222380E+00  3.27327252E+00  3.32063298E+00  3.33496271E+00  3.34560587E+00
  3.40537758E+00  3.41515007E+00  3.51093093E+00  3.53988515E+00  3.59854193E+00
  3.68959703E+00  3.70816304E+00  3.76017078E+00  3.77980639E+00  3.80168245E+00
  3.94249655E+00  3.96948804E+00  4.15350700E+00  4.49376354E+00  4.64066018E+00
  4.74093070E+00  4.80498880E+00  4.88221008E+00  4.89812510E+00  4.97769816E+00
  5.03860658E+00  5.63420359E+00  6.07997221E+00  2.33240107E+01  2.38858653E+01
  2.39626336E+01  2.41000056E+01  2.41727717E+01  2.42439478E+01  3.55076783E+01
  3.55906790E+01  4.99763721E+01  5.01193028E+01
Alpha MO coefficients                      R   N=       39204
 -3.40826558E-07  1.73168969E-06 -2.78253152E-07  6.78999584E-07 -2.12114370E-05
  2.02487373E-05  7.90316440E-07 -6.86078170E-05  1.02807412E-04 -6.08134689E-03
 -4.94819177E-06 -3.42425379E-03  3.11293496E-03 -1.16845999E-05  1.97151017E-07
  8.61682814E-05 -6.98091602E-06  7.71489739E-07 -1.15163819E-06  5.70117042E-06
  1.24163899E-06 -1.00751383E-05 -9.55819799E-06 -5.53449854E-05 -4.31325191E-06
  4.49237490E-05  4.47145963E-05  3.23642011E-04  1.10404442E-05 -1.55130314E-03