 Entering Gaussian System, Link 0=g16
 Initial command:
 /sob/g16/l1.exe "/hard/gauscr/Gau-115129.inp" -scrdir="/hard/gauscr/"
 Default is to use a total of  36 processors:
                               36 via shared-memory
                                1 via Linda
 Entering Link 1 = /sob/g16/l1.exe PID=    115131.
  
 Copyright (c) 1988,1990,1992,1993,1995,1998,2003,2009,2016,
            Gaussian, Inc.  All Rights Reserved.
  
 This is part of the Gaussian(R) 16 program.  It is based on
 the Gaussian(R) 09 system (copyright 2009, Gaussian, Inc.),
 the Gaussian(R) 03 system (copyright 2003, Gaussian, Inc.),
 the Gaussian(R) 98 system (copyright 1998, Gaussian, Inc.),
 the Gaussian(R) 94 system (copyright 1995, Gaussian, Inc.),
 the Gaussian 92(TM) system (copyright 1992, Gaussian, Inc.),
 the Gaussian 90(TM) system (copyright 1990, Gaussian, Inc.),
 the Gaussian 88(TM) system (copyright 1988, Gaussian, Inc.),
 the Gaussian 86(TM) system (copyright 1986, Carnegie Mellon
 University), and the Gaussian 82(TM) system (copyright 1983,
 Carnegie Mellon University). Gaussian is a federally registered
 trademark of Gaussian, Inc.
  
 This software contains proprietary and confidential information,
 including trade secrets, belonging to Gaussian, Inc.
  
 This software is provided under written license and may be
 used, copied, transmitted, or stored only in accord with that
 written license.
  
 The following legend is applicable only to US Government
 contracts under FAR:
  
                    RESTRICTED RIGHTS LEGEND
  
 Use, reproduction and disclosure by the US Government is
 subject to restrictions as set forth in subparagraphs (a)
 and (c) of the Commercial Computer Software - Restricted
 Rights clause in FAR 52.227-19.
  
 Gaussian, Inc.
 340 Quinnipiac St., Bldg. 40, Wallingford CT 06492
  
  
 ---------------------------------------------------------------
 Warning -- This program may not be used in any manner that
 competes with the business of Gaussian, Inc. or will provide
 assistance to any competitor of Gaussian, Inc.  The licensee
 of this program is prohibited from giving any competitor of
 Gaussian, Inc. access to this program.  By using this program,
 the user acknowledges that Gaussian, Inc. is engaged in the
 business of creating and licensing software in the field of
 computational chemistry and represents and warrants to the
 licensee that it is not a competitor of Gaussian, Inc. and that
 it will not use this program in any manner prohibited above.
 ---------------------------------------------------------------
  

 Cite this work as:
 Gaussian 16, Revision A.03,
 M. J. Frisch, G. W. Trucks, H. B. Schlegel, G. E. Scuseria, 
 M. A. Robb, J. R. Cheeseman, G. Scalmani, V. Barone, 
 G. A. Petersson, H. Nakatsuji, X. Li, M. Caricato, A. V. Marenich, 
 J. Bloino, B. G. Janesko, R. Gomperts, B. Mennucci, H. P. Hratchian, 
 J. V. Ortiz, A. F. Izmaylov, J. L. Sonnenberg, D. Williams-Young, 
 F. Ding, F. Lipparini, F. Egidi, J. Goings, B. Peng, A. Petrone, 
 T. Henderson, D. Ranasinghe, V. G. Zakrzewski, J. Gao, N. Rega, 
 G. Zheng, W. Liang, M. Hada, M. Ehara, K. Toyota, R. Fukuda, 
 J. Hasegawa, M. Ishida, T. Nakajima, Y. Honda, O. Kitao, H. Nakai, 
 T. Vreven, K. Throssell, J. A. Montgomery, Jr., J. E. Peralta, 
 F. Ogliaro, M. J. Bearpark, J. J. Heyd, E. N. Brothers, K. N. Kudin, 
 V. N. Staroverov, T. A. Keith, R. Kobayashi, J. Normand, 
 K. Raghavachari, A. P. Rendell, J. C. Burant, S. S. Iyengar, 
 J. Tomasi, M. Cossi, J. M. Millam, M. Klene, C. Adamo, R. Cammi, 
 J. W. Ochterski, R. L. Martin, K. Morokuma, O. Farkas, 
 J. B. Foresman, and D. J. Fox, Gaussian, Inc., Wallingford CT, 2016.
 
 ******************************************
 Gaussian 16:  ES64L-G16RevA.03 25-Dec-2016
                20-May-2021 
 ******************************************
 ------------------------------------
 # B3LYP/6-311G* opt freq TD int=fine
 ------------------------------------
 1/18=20,19=15,26=3,38=1/1,3;
 2/9=110,12=2,17=6,18=5,40=1/2;
 3/5=4,6=6,7=1,11=9,25=1,30=1,71=1,74=-5,75=-4/1,2,3,8;
 4//1;
 5/5=2,38=5/2;
 8/6=1,10=2/1;
 9/15=2,42=1,70=2/14;
 10/5=4/2;
 6/7=2,8=2,9=2,10=2/1;
 7/12=6,13=5/1,2,3,16;
 1/18=20,19=15,26=3/3(2);
 2/9=110/2;
 99//99;
 2/9=110/2;
 3/5=4,6=6,7=1,11=9,25=1,30=1,71=1,74=-5,75=-4/1,2,3,8;
 4/5=5,16=3,69=1/1;
 5/5=2,38=5/2;
 8/6=1,10=2/1;
 9/15=2,42=1,49=4,70=2/14;
 10/5=4/2;
 7/12=6,13=5/1,2,3,16;
 1/18=20,19=15,26=3/3(-8);
 2/9=110/2;
 6/7=2,8=2,9=2,10=2/1;
 99//99;
 ----
 test
 ----
 Symbolic Z-matrix:
 Charge =  0 Multiplicity = 1
 C                    -1.23552  -1.09248   0.17282 
 N                    -1.24999   0.3127   -0.04245 
 B                     0.01401   1.22286   0.21926 
 N                     1.16602   0.27908  -0.09843 
 C                     1.18511  -1.1093    0.13923 
 C                     0.09237  -1.78795   0.37254 
 C                    -2.42387  -1.57296  -0.04122 
 C                    -3.29611  -0.38769  -0.42024 
 C                    -2.47878   0.71347  -0.43713 
 C                     2.40601   0.62945  -0.42032 
 C                     3.29051  -0.50533  -0.39785 
 C                     2.60301  -1.5506   -0.02443 
 F                    -0.02798   1.61612   1.54212 
 F                    -0.01677   2.29714  -0.64205 
 H                     0.08676  -2.85435   0.55824 
 H                    -4.3678   -0.41933  -0.58573 
 H                     4.3398   -0.4586   -0.66412 
 H                     2.91713  -2.58141   0.08201 
 H                    -2.68596   1.75287  -0.64106 
 H                    -2.7604   -2.59815   0.02043 
 H                     2.6412    1.66325  -0.64104 
 

 GradGradGradGradGradGradGradGradGradGradGradGradGradGradGradGradGradGrad
 Berny optimization.
 Initialization pass.
                           ----------------------------
                           !    Initial Parameters    !
                           ! (Angstroms and Degrees)  !
 --------------------------                            --------------------------
 ! Name  Definition              Value          Derivative Info.                !
 --------------------------------------------------------------------------------
 ! R1    R(1,2)                  1.4216         estimate D2E/DX2                !
 ! R2    R(1,6)                  1.5122         estimate D2E/DX2                !
 ! R3    R(1,7)                  1.2996         estimate D2E/DX2                !
 ! R4    R(2,3)                  1.5794         estimate D2E/DX2                !
 ! R5    R(2,9)                  1.3514         estimate D2E/DX2                !
 ! R6    R(3,4)                  1.5227         estimate D2E/DX2                !
 ! R7    R(3,13)                 1.3807         estimate D2E/DX2                !
 ! R8    R(3,14)                 1.3773         estimate D2E/DX2                !
 ! R9    R(4,5)                  1.4087         estimate D2E/DX2                !
 ! R10   R(4,10)                 1.3281         estimate D2E/DX2                !
 ! R11   R(5,6)                  1.3073         estimate D2E/DX2                !
 ! R12   R(5,12)                 1.494          estimate D2E/DX2                !
 ! R13   R(6,15)                 1.0825         estimate D2E/DX2                !
 ! R14   R(7,8)                  1.5196         estimate D2E/DX2                !
 ! R15   R(7,20)                 1.0808         estimate D2E/DX2                !
 ! R16   R(8,9)                  1.3715         estimate D2E/DX2                !
 ! R17   R(8,16)                 1.0849         estimate D2E/DX2                !
 ! R18   R(9,19)                 1.0793         estimate D2E/DX2                !
 ! R19   R(10,11)                1.4389         estimate D2E/DX2                !
 ! R20   R(10,21)                1.0829         estimate D2E/DX2                !
 ! R21   R(11,12)                1.3056         estimate D2E/DX2                !
 ! R22   R(11,17)                1.0836         estimate D2E/DX2                !
 ! R23   R(12,18)                1.0828         estimate D2E/DX2                !
 ! A1    A(2,1,6)              118.9145         estimate D2E/DX2                !
 ! A2    A(2,1,7)              109.3412         estimate D2E/DX2                !
 ! A3    A(6,1,7)              130.895          estimate D2E/DX2                !
 ! A4    A(1,2,3)              122.4356         estimate D2E/DX2                !
 ! A5    A(1,2,9)              110.2798         estimate D2E/DX2                !
 ! A6    A(3,2,9)              127.241          estimate D2E/DX2                !
 ! A7    A(2,3,4)              102.3404         estimate D2E/DX2                !
 ! A8    A(2,3,13)             107.3702         estimate D2E/DX2                !
 ! A9    A(2,3,14)             109.1464         estimate D2E/DX2                !
 ! A10   A(4,3,13)             113.5419         estimate D2E/DX2                !
 ! A11   A(4,3,14)             111.708          estimate D2E/DX2                !
 ! A12   A(13,3,14)            112.1062         estimate D2E/DX2                !
 ! A13   A(3,4,5)              125.8667         estimate D2E/DX2                !
 ! A14   A(3,4,10)             126.3977         estimate D2E/DX2                !
 ! A15   A(5,4,10)             106.752          estimate D2E/DX2                !
 ! A16   A(4,5,6)              122.0328         estimate D2E/DX2                !
 ! A17   A(4,5,12)             106.5894         estimate D2E/DX2                !
 ! A18   A(6,5,12)             131.2623         estimate D2E/DX2                !
 ! A19   A(1,6,5)              118.1424         estimate D2E/DX2                !
 ! A20   A(1,6,15)             118.1107         estimate D2E/DX2                !
 ! A21   A(5,6,15)             123.1176         estimate D2E/DX2                !
 ! A22   A(1,7,8)              106.1151         estimate D2E/DX2                !
 ! A23   A(1,7,20)             128.7592         estimate D2E/DX2                !
 ! A24   A(8,7,20)             125.1244         estimate D2E/DX2                !
 ! A25   A(7,8,9)              106.6932         estimate D2E/DX2                !
 ! A26   A(7,8,16)             125.6133         estimate D2E/DX2                !
 ! A27   A(9,8,16)             127.6092         estimate D2E/DX2                !
 ! A28   A(2,9,8)              107.4683         estimate D2E/DX2                !
 ! A29   A(2,9,19)             121.0191         estimate D2E/DX2                !
 ! A30   A(8,9,19)             131.389          estimate D2E/DX2                !
 ! A31   A(4,10,11)            111.2274         estimate D2E/DX2                !
 ! A32   A(4,10,21)            120.2645         estimate D2E/DX2                !
 ! A33   A(11,10,21)           128.4997         estimate D2E/DX2                !
 ! A34   A(10,11,12)           108.189          estimate D2E/DX2                !
 ! A35   A(10,11,17)           123.8764         estimate D2E/DX2                !
 ! A36   A(12,11,17)           127.9311         estimate D2E/DX2                !
 ! A37   A(5,12,11)            107.1328         estimate D2E/DX2                !
 ! A38   A(5,12,18)            123.0751         estimate D2E/DX2                !
 ! A39   A(11,12,18)           129.6039         estimate D2E/DX2                !
 ! D1    D(6,1,2,3)            -13.3149         estimate D2E/DX2                !
 ! D2    D(6,1,2,9)            168.9261         estimate D2E/DX2                !
 ! D3    D(7,1,2,3)            176.1031         estimate D2E/DX2                !
 ! D4    D(7,1,2,9)             -1.656          estimate D2E/DX2                !
 ! D5    D(2,1,6,5)            -10.1964         estimate D2E/DX2                !
 ! D6    D(2,1,6,15)           178.6087         estimate D2E/DX2                !
 ! D7    D(7,1,6,5)            158.0176         estimate D2E/DX2                !
 ! D8    D(7,1,6,15)           -13.1773         estimate D2E/DX2                !
 ! D9    D(2,1,7,8)             -0.3725         estimate D2E/DX2                !
 ! D10   D(2,1,7,20)           179.2324         estimate D2E/DX2                !
 ! D11   D(6,1,7,8)           -169.4496         estimate D2E/DX2                !
 ! D12   D(6,1,7,20)            10.1553         estimate D2E/DX2                !
 ! D13   D(1,2,3,4)             31.4535         estimate D2E/DX2                !
 ! D14   D(1,2,3,13)           -88.3376         estimate D2E/DX2                !
 ! D15   D(1,2,3,14)           149.9269         estimate D2E/DX2                !
 ! D16   D(9,2,3,4)           -151.1872         estimate D2E/DX2                !
 ! D17   D(9,2,3,13)            89.0218         estimate D2E/DX2                !
 ! D18   D(9,2,3,14)           -32.7137         estimate D2E/DX2                !
 ! D19   D(1,2,9,8)              3.0848         estimate D2E/DX2                !
 ! D20   D(1,2,9,19)           179.4811         estimate D2E/DX2                !
 ! D21   D(3,2,9,8)           -174.5394         estimate D2E/DX2                !
 ! D22   D(3,2,9,19)             1.8569         estimate D2E/DX2                !
 ! D23   D(2,3,4,5)            -34.2512         estimate D2E/DX2                !
 ! D24   D(2,3,4,10)           158.6226         estimate D2E/DX2                !
 ! D25   D(13,3,4,5)            81.1318         estimate D2E/DX2                !
 ! D26   D(13,3,4,10)          -85.9944         estimate D2E/DX2                !
 ! D27   D(14,3,4,5)          -150.8964         estimate D2E/DX2                !
 ! D28   D(14,3,4,10)           41.9774         estimate D2E/DX2                !
 ! D29   D(3,4,5,6)             16.5265         estimate D2E/DX2                !
 ! D30   D(3,4,5,12)          -166.9712         estimate D2E/DX2                !
 ! D31   D(10,4,5,6)          -174.268          estimate D2E/DX2                !
 ! D32   D(10,4,5,12)            2.2343         estimate D2E/DX2                !
 ! D33   D(3,4,10,11)          168.6761         estimate D2E/DX2                !
 ! D34   D(3,4,10,21)          -10.3534         estimate D2E/DX2                !
 ! D35   D(5,4,10,11)           -0.4552         estimate D2E/DX2                !
 ! D36   D(5,4,10,21)         -179.4847         estimate D2E/DX2                !
 ! D37   D(4,5,6,1)              9.3393         estimate D2E/DX2                !
 ! D38   D(4,5,6,15)          -179.9376         estimate D2E/DX2                !
 ! D39   D(12,5,6,1)          -166.1996         estimate D2E/DX2                !
 ! D40   D(12,5,6,15)            4.5236         estimate D2E/DX2                !
 ! D41   D(4,5,12,11)           -3.3751         estimate D2E/DX2                !
 ! D42   D(4,5,12,18)         -178.8219         estimate D2E/DX2                !
 ! D43   D(6,5,12,11)          172.6796         estimate D2E/DX2                !
 ! D44   D(6,5,12,18)           -2.7673         estimate D2E/DX2                !
 ! D45   D(1,7,8,9)              2.223          estimate D2E/DX2                !
 ! D46   D(1,7,8,16)          -174.6418         estimate D2E/DX2                !
 ! D47   D(20,7,8,9)          -177.4003         estimate D2E/DX2                !
 ! D48   D(20,7,8,16)            5.7349         estimate D2E/DX2                !
 ! D49   D(7,8,9,2)             -3.1885         estimate D2E/DX2                !
 ! D50   D(7,8,9,19)          -179.0712         estimate D2E/DX2                !
 ! D51   D(16,8,9,2)           173.594          estimate D2E/DX2                !
 ! D52   D(16,8,9,19)           -2.2887         estimate D2E/DX2                !
 ! D53   D(4,10,11,12)          -1.7824         estimate D2E/DX2                !
 ! D54   D(4,10,11,17)         177.5835         estimate D2E/DX2                !
 ! D55   D(21,10,11,12)        177.1465         estimate D2E/DX2                !
 ! D56   D(21,10,11,17)         -3.4876         estimate D2E/DX2                !
 ! D57   D(10,11,12,5)           3.0588         estimate D2E/DX2                !
 ! D58   D(10,11,12,18)        178.1059         estimate D2E/DX2                !
 ! D59   D(17,11,12,5)        -176.2738         estimate D2E/DX2                !
 ! D60   D(17,11,12,18)         -1.2267         estimate D2E/DX2                !
 --------------------------------------------------------------------------------
 Trust Radius=3.00D-01 FncErr=1.00D-07 GrdErr=1.00D-06 EigMax=2.50D+02 EigMin=1.00D-04
 Number of steps in this run=    126 maximum allowed number of steps=    126.
 GradGradGradGradGradGradGradGradGradGradGradGradGradGradGradGradGradGrad

                          Input orientation:                          
 ---------------------------------------------------------------------
 Center     Atomic      Atomic             Coordinates (Angstroms)
 Number     Number       Type             X           Y           Z
 ---------------------------------------------------------------------
      1          6           0       -1.235520   -1.092480    0.172822
      2          7           0       -1.249993    0.312695   -0.042445
      3          5           0        0.014008    1.222860    0.219255
      4          7           0        1.166016    0.279084   -0.098429
      5          6           0        1.185109   -1.109297    0.139228
      6          6           0        0.092368   -1.787945    0.372537
      7          6           0       -2.423872   -1.572959   -0.041217
      8          6           0       -3.296114   -0.387692   -0.420239
      9          6           0       -2.478777    0.713468   -0.437131
     10          6           0        2.406005    0.629447   -0.420318
     11          6           0        3.290506   -0.505327   -0.397848
     12          6           0        2.603011   -1.550604   -0.024426
     13          9           0       -0.027983    1.616120    1.542121
     14          9           0       -0.016774    2.297137   -0.642048
     15          1           0        0.086760   -2.854346    0.558242
     16          1           0       -4.367802   -0.419332   -0.585728
     17          1           0        4.339797   -0.458600   -0.664121
     18          1           0        2.917126   -2.581405    0.082010
     19          1           0       -2.685956    1.752868   -0.641060
     20          1           0       -2.760403   -2.598154    0.020434
     21          1           0        2.641200    1.663245   -0.641036
 ---------------------------------------------------------------------
                    Distance matrix (angstroms):
                    1          2          3          4          5
     1  C    0.000000
     2  N    1.421642   0.000000
     3  B    2.631402   1.579426   0.000000
     4  N    2.778874   2.416891   1.522747   0.000000
     5  C    2.420921   2.825737   2.610908   1.408704   0.000000
     6  C    1.512232   2.527218   3.015723   2.376371   1.307318
     7  C    1.299559   2.221190   3.718563   4.039880   3.643115
     8  C    2.257099   2.195423   3.736273   4.523136   4.573300
     9  C    2.275781   1.351409   2.627603   3.686180   4.132641
    10  C    4.071554   3.689098   2.546143   1.328134   2.197023
    11  C    4.599492   4.627267   3.755381   2.284384   2.255200
    12  C    3.870802   4.279935   3.801897   2.327700   1.493981
    13  F    3.266441   2.388111   1.380721   2.429960   3.296604
    14  F    3.693082   2.412128   1.377266   2.401469   3.695769
    15  H    2.236324   3.489682   4.091921   3.378519   2.104077
    16  H    3.292373   3.248346   4.748163   5.598963   5.642378
    17  H    5.673309   5.676894   4.724417   3.307124   3.319764
    18  H    4.412438   5.075055   4.787417   3.358771   2.273820
    19  H    3.295781   2.120007   2.882856   4.159829   4.877087
    20  H    2.148382   3.279990   4.726207   4.869229   4.218752
    21  H    4.825489   4.162172   2.799317   2.094395   3.227383
                    6          7          8          9         10
     6  C    0.000000
     7  C    2.559077   0.000000
     8  C    3.751135   1.519645   0.000000
     9  C    3.677420   2.321101   1.371451   0.000000
    10  C    3.438796   5.321844   5.792127   4.885533   0.000000
    11  C    3.530820   5.824186   6.587708   5.896747   1.438944
    12  C    2.552888   5.026961   6.025671   5.578612   2.224447
    13  F    3.601398   4.291558   4.306600   3.276982   3.278565
    14  F    4.210604   4.597038   4.244005   2.934528   2.949612
    15  H    1.082464   2.881766   4.299493   4.505779   4.298057
    16  H    4.762824   2.325126   1.084852   2.207653   6.856512
    17  H    4.569734   6.883097   7.640134   6.922299   2.232227
    18  H    2.948431   5.436764   6.608251   6.343616   3.289855
    19  H    4.613439   3.389635   2.236750   1.079288   5.219087
    20  H    2.986422   1.080777   2.316748   3.354925   6.107654
    21  H    4.408468   6.040509   6.285443   5.211316   1.082946
                   11         12         13         14         15
    11  C    0.000000
    12  C    1.305641   0.000000
    13  F    4.390488   4.405036   0.000000
    14  F    4.341836   4.695726   2.287904   0.000000
    15  H    4.086072   2.893227   4.578892   5.290481   0.000000
    16  H    7.661095   7.084283   5.244505   5.129700   5.203949
    17  H    1.083557   2.148978   5.315023   5.155025   5.032106
    18  H    2.163279   1.082842   5.331492   5.738658   2.883100
    19  H    6.393488   6.266286   3.442354   2.724108   5.509328
    20  H    6.416259   5.464941   5.248024   5.650686   2.908816
    21  H    2.276718   3.272689   3.448613   2.732516   5.326543
                   16         17         18         19         20
    16  H    0.000000
    17  H    8.708040   0.000000
    18  H    7.628277   2.662143   0.000000
    19  H    2.747748   7.365618   7.120624   0.000000
    20  H    2.774604   7.447090   5.677888   4.401648   0.000000
    21  H    7.312065   2.718086   4.314624   5.327910   6.911901
                   21
    21  H    0.000000
 Stoichiometry    C9H7BF2N2
 Framework group  C1[X(C9H7BF2N2)]
 Deg. of freedom    57
 Full point group                 C1      NOp   1
 Largest Abelian subgroup         C1      NOp   1
 Largest concise Abelian subgroup C1      NOp   1
                         Standard orientation:                         
 ---------------------------------------------------------------------
 Center     Atomic      Atomic             Coordinates (Angstroms)
 Number     Number       Type             X           Y           Z
 ---------------------------------------------------------------------
      1          6           0       -1.192256   -1.140575    0.173746
      2          7           0       -1.262509    0.262911   -0.041561
      3          5           0       -0.035350    1.222427    0.219202
      4          7           0        1.152896    0.324984   -0.099273
      5          6           0        1.227116   -1.061537    0.138420
      6          6           0        0.162269   -1.782905    0.372535
      7          6           0       -2.360804   -1.667743   -0.039426
      8          6           0       -3.279563   -0.517966   -0.417865
      9          6           0       -2.506479    0.614692   -0.435381
     10          6           0        2.377810    0.724148   -0.422062
     11          6           0        3.306564   -0.374713   -0.400185
     12          6           0        2.661262   -1.446368   -0.026234
     13          9           0       -0.091935    1.613800    1.542084
     14          9           0       -0.109258    2.294588   -0.642116
     15          1           0        0.199022   -2.848680    0.558281
     16          1           0       -4.349276   -0.592025   -0.582586
     17          1           0        4.352992   -0.286494   -0.667210
     18          1           0        3.016021   -2.463916    0.080014
     19          1           0       -2.754796    1.645060   -0.639198
     20          1           0       -2.656435   -2.705455    0.022503
     21          1           0        2.571730    1.766434   -0.642985
 ---------------------------------------------------------------------
 Rotational constants (GHZ):           1.2521678           0.6587513           0.4867305
 Standard basis: 6-311G(d) (5D, 7F)
 There are   287 symmetry adapted cartesian basis functions of A   symmetry.
 There are   273 symmetry adapted basis functions of A   symmetry.
   273 basis functions,   483 primitive gaussians,   287 cartesian basis functions
    49 alpha electrons       49 beta electrons
       nuclear repulsion energy       864.1962536364 Hartrees.
 NAtoms=   21 NActive=   21 NUniq=   21 SFac= 1.00D+00 NAtFMM=   60 NAOKFM=F Big=F
 Integral buffers will be    131072 words long.
 Regular integral format.
 Two-electron integral symmetry is turned on.
 One-electron integrals computed using PRISM.
 NBasis=   273 RedAO= T EigKep=  2.88D-04  NBF=   273
 NBsUse=   273 1.00D-06 EigRej= -1.00D+00 NBFU=   273
 ExpMin= 9.89D-02 ExpMax= 1.14D+04 ExpMxC= 1.72D+03 IAcc=2 IRadAn=         4 AccDes= 0.00D+00
 Harris functional with IExCor=  402 and IRadAn=       4 diagonalized for initial guess.
 HarFok:  IExCor=  402 AccDes= 0.00D+00 IRadAn=         4 IDoV= 1 UseB2=F ITyADJ=14
 ICtDFT=  3500011 ScaDFX=  1.000000  1.000000  1.000000  1.000000
 FoFCou: FMM=F IPFlag=           0 FMFlag=      100000 FMFlg1=           0
         NFxFlg=           0 DoJE=T BraDBF=F KetDBF=T FulRan=T
         wScrn=  0.000000 ICntrl=       500 IOpCl=  0 I1Cent=   200000004 NGrid=           0
         NMat0=    1 NMatS0=      1 NMatT0=    0 NMatD0=    1 NMtDS0=    0 NMtDT0=    0
 Petite list used in FoFCou.
 Requested convergence on RMS density matrix=1.00D-08 within 128 cycles.
 Requested convergence on MAX density matrix=1.00D-06.
 Requested convergence on             energy=1.00D-06.
 No special actions if energy rises.
 Integral accuracy reduced to 1.0D-05 until final iterations.
 Initial convergence to 1.0D-05 achieved.  Increase integral accuracy.
 SCF Done:  E(RB3LYP) =  -681.491626360     A.U. after   16 cycles
            NFock= 16  Conv=0.65D-08     -V/T= 2.0031
 DoSCS=F DFT=T ScalE2(SS,OS)=  1.000000  1.000000
 ExpMin= 9.89D-02 ExpMax= 1.14D+04 ExpMxC= 1.72D+03 IAcc=3 IRadAn=         5 AccDes= 0.00D+00
 HarFok:  IExCor=  205 AccDes= 0.00D+00 IRadAn=         5 IDoV=-2 UseB2=F ITyADJ=14
 ICtDFT= 12500011 ScaDFX=  1.000000  1.000000  1.000000  1.000000
 Range of M.O.s used for correlation:    15   273
 NBasis=   273 NAE=    49 NBE=    49 NFC=    14 NFV=     0
 NROrb=    259 NOA=    35 NOB=    35 NVA=   224 NVB=   224

 **** Warning!!: The largest alpha MO coefficient is  0.11005318D+02


 **** Warning!!: The smallest alpha delta epsilon is  0.97508915D-01

 Keep R1, R2, and R3 ints in memory in canonical form, NReq=2285699316.
 Orbital symmetries:
       Occupied  (A) (A) (A) (A) (A) (A) (A) (A) (A) (A) (A) (A)
                 (A) (A) (A) (A) (A) (A) (A) (A) (A) (A) (A) (A)
                 (A) (A) (A) (A) (A) (A) (A) (A) (A) (A) (A) (A)
                 (A) (A) (A) (A) (A) (A) (A) (A) (A) (A) (A) (A)
                 (A)
       Virtual   (A) (A) (A) (A) (A) (A) (A) (A) (A) (A) (A) (A)
                 (A) (A) (A) (A) (A) (A) (A) (A) (A) (A) (A) (A)
                 (A) (A) (A) (A) (A) (A) (A) (A) (A) (A) (A) (A)
                 (A) (A) (A) (A) (A) (A) (A) (A) (A) (A) (A) (A)
                 (A) (A) (A) (A) (A) (A) (A) (A) (A) (A) (A) (A)
                 (A) (A) (A) (A) (A) (A) (A) (A) (A) (A) (A) (A)
                 (A) (A) (A) (A) (A) (A) (A) (A) (A) (A) (A) (A)
                 (A) (A) (A) (A) (A) (A) (A) (A) (A) (A) (A) (A)
                 (A) (A) (A) (A) (A) (A) (A) (A) (A) (A) (A) (A)
                 (A) (A) (A) (A) (A) (A) (A) (A) (A) (A) (A) (A)
                 (A) (A) (A) (A) (A) (A) (A) (A) (A) (A) (A) (A)
                 (A) (A) (A) (A) (A) (A) (A) (A) (A) (A) (A) (A)
                 (A) (A) (A) (A) (A) (A) (A) (A) (A) (A) (A) (A)
                 (A) (A) (A) (A) (A) (A) (A) (A) (A) (A) (A) (A)
                 (A) (A) (A) (A) (A) (A) (A) (A) (A) (A) (A) (A)
                 (A) (A) (A) (A) (A) (A) (A) (A) (A) (A) (A) (A)
                 (A) (A) (A) (A) (A) (A) (A) (A) (A) (A) (A) (A)
                 (A) (A) (A) (A) (A) (A) (A) (A) (A) (A) (A) (A)
                 (A) (A) (A) (A) (A) (A) (A) (A)
    12 initial guesses have been made.
 Convergence on wavefunction:    0.000001000000000
 Iteration     1 Dimension    12 NMult     0 NNew     12
 CISAX will form    12 AO SS matrices at one time.
 New state      3 was old state      5
 Iteration     2 Dimension    18 NMult    12 NNew      6
 New state      3 was old state      4
 Iteration     3 Dimension    24 NMult    18 NNew      6
 Iteration     4 Dimension    30 NMult    24 NNew      6
 Iteration     5 Dimension    36 NMult    30 NNew      6
 Iteration     6 Dimension    42 NMult    36 NNew      6
 Iteration     7 Dimension    48 NMult    42 NNew      6
 Iteration     8 Dimension    54 NMult    48 NNew      6
 Iteration     9 Dimension    60 NMult    54 NNew      6
 Iteration    10 Dimension    64 NMult    60 NNew      4
 Iteration    11 Dimension    66 NMult    64 NNew      2
 Iteration    12 Dimension    68 NMult    66 NNew      2
 ***********************************************************************
 Excited states from <AA,BB:AA,BB> singles matrix:
 ***********************************************************************
 
 Ground to excited state transition densities written to RWF  633
 Ground to excited state transition electric dipole moments (Au):
       state          X           Y           Z        Dip. S.      Osc.
         1         0.8161     -0.2146      0.0365      0.7134      0.0363
         2        -2.0363     -0.1946     -0.0036      4.1842      0.3252
         3        -0.4612      0.4112     -0.0149      0.3820      0.0412
 Ground to excited state transition velocity dipole moments (Au):
       state          X           Y           Z        Dip. S.      Osc.
         1        -0.0623      0.0153     -0.0017      0.0041      0.0360
         2         0.2317      0.0229      0.0001      0.0542      0.3099
         3         0.0741     -0.0684      0.0026      0.0102      0.0419
 Ground to excited state transition magnetic dipole moments (Au):
       state          X           Y           Z
         1         0.0711     -0.1864     -1.0639
         2         0.0258      0.1843      0.9635
         3        -0.1655     -0.0910     -0.9195
 Ground to excited state transition velocity quadrupole moments (Au):
       state          XX          YY          ZZ          XY          XZ          YZ
         1         0.0427     -0.0506      0.0008     -0.0655      0.0548      0.0098
         2        -0.0395     -0.0387      0.0059     -0.1554     -0.1156     -0.0015
         3         0.1627      0.1623     -0.0136     -0.3140      0.0308     -0.0314
 <0|del|b> * <b|rxdel|0> + <0|del|b> * <b|delr+rdel|0>
 Rotatory Strengths (R) in cgs (10**-40 erg-esu-cm/Gauss)
       state          XX          YY          ZZ    R(velocity)    E-M Angle
         1        -8.0486    -15.3652    -27.0422    -16.8187       94.49
         2        21.0279     17.3450     23.9635     20.7788       87.42
         3        11.2631    -35.3183    -12.7351    -12.2634       95.10
 1/2[<0|r|b>*<b|rxdel|0> + (<0|rxdel|b>*<b|r|0>)*]
 Rotatory Strengths (R) in cgs (10**-40 erg-esu-cm/Gauss)
       state          XX          YY          ZZ     R(length)
         1       -41.0423    -28.2883     27.4993    -13.9438
         2        37.1466     25.3665      2.4270     21.6467
         3       -53.9801     26.4606     -9.6728    -12.3974
  1/2[<0|del|b>*<b|r|0> + (<0|r|b>*<b|del|0>)*] (Au)
       state          X           Y           Z        Dip. S.   Osc.(frdel)
         1        -0.0509     -0.0033     -0.0001      0.0542      0.0361
         2        -0.4717     -0.0045     -0.0000      0.4762      0.3175
         3        -0.0342     -0.0281     -0.0000      0.0623      0.0415

 Excitation energies and oscillator strengths:
 
 Excited State   1:      Singlet-A      2.0758 eV  597.28 nm  f=0.0363  <S**2>=0.000
      48 -> 50         0.21204
      49 -> 50         0.67467
 This state for optimization and/or second-order correction.
 Total Energy, E(TD-HF/TD-DFT) =  -681.415342103    
 Copying the excited state density for this state as the 1-particle RhoCI density.
 
 Excited State   2:      Singlet-A      3.1723 eV  390.83 nm  f=0.3252  <S**2>=0.000
      48 -> 50         0.67224
      49 -> 50        -0.21515
 
 Excited State   3:      Singlet-A      4.4000 eV  281.78 nm  f=0.0412  <S**2>=0.000
      47 -> 50         0.69585
 SavETr:  write IOETrn=   770 NScale= 10 NData=  16 NLR=1 NState=    3 LETran=      64.
          IDoAtm=111111111111111111111
          Differentiating once with respect to electric field.
                with respect to dipole field.
          Differentiating once with respect to nuclear coordinates.
 Keep R1 ints in memory in canonical form, NReq=739550835.
          There are     1 degrees of freedom in the 1st order CPHF.  IDoFFX=0 NUNeed=     1.
 LinEq1:  Iter=  0 NonCon=     1 RMS=3.07D-02 Max=2.64D+00 NDo=     1
 AX will form     1 AO Fock derivatives at one time.
 LinEq1:  Iter=  1 NonCon=     1 RMS=1.18D-02 Max=7.48D-01 NDo=     1
 LinEq1:  Iter=  2 NonCon=     1 RMS=7.70D-03 Max=3.49D-01 NDo=     1
 LinEq1:  Iter=  3 NonCon=     1 RMS=5.60D-03 Max=2.72D-01 NDo=     1
 LinEq1:  Iter=  4 NonCon=     1 RMS=3.98D-03 Max=1.76D-01 NDo=     1
 LinEq1:  Iter=  5 NonCon=     1 RMS=1.51D-03 Max=4.40D-02 NDo=     1
 LinEq1:  Iter=  6 NonCon=     1 RMS=1.16D-03 Max=4.61D-02 NDo=     1
 LinEq1:  Iter=  7 NonCon=     1 RMS=7.32D-04 Max=2.84D-02 NDo=     1
 LinEq1:  Iter=  8 NonCon=     1 RMS=4.53D-04 Max=9.94D-03 NDo=     1
 LinEq1:  Iter=  9 NonCon=     1 RMS=2.88D-04 Max=1.57D-02 NDo=     1
 LinEq1:  Iter= 10 NonCon=     1 RMS=1.39D-04 Max=4.35D-03 NDo=     1
 LinEq1:  Iter= 11 NonCon=     1 RMS=1.05D-04 Max=3.29D-03 NDo=     1
 LinEq1:  Iter= 12 NonCon=     1 RMS=4.00D-05 Max=7.34D-04 NDo=     1
 LinEq1:  Iter= 13 NonCon=     1 RMS=2.15D-05 Max=6.18D-04 NDo=     1
 LinEq1:  Iter= 14 NonCon=     1 RMS=1.29D-05 Max=3.06D-04 NDo=     1
 LinEq1:  Iter= 15 NonCon=     1 RMS=5.26D-06 Max=1.38D-04 NDo=     1
 LinEq1:  Iter= 16 NonCon=     1 RMS=3.40D-06 Max=6.96D-05 NDo=     1
 LinEq1:  Iter= 17 NonCon=     1 RMS=1.65D-06 Max=4.39D-05 NDo=     1
 LinEq1:  Iter= 18 NonCon=     1 RMS=6.09D-07 Max=1.22D-05 NDo=     1
 LinEq1:  Iter= 19 NonCon=     1 RMS=3.49D-07 Max=5.23D-06 NDo=     1
 LinEq1:  Iter= 20 NonCon=     1 RMS=1.17D-07 Max=1.95D-06 NDo=     1
 LinEq1:  Iter= 21 NonCon=     1 RMS=4.87D-08 Max=9.32D-07 NDo=     1
 LinEq1:  Iter= 22 NonCon=     1 RMS=2.74D-08 Max=4.08D-07 NDo=     1
 LinEq1:  Iter= 23 NonCon=     1 RMS=1.04D-08 Max=1.62D-07 NDo=     1
 LinEq1:  Iter= 24 NonCon=     1 RMS=3.22D-09 Max=5.35D-08 NDo=     1
 LinEq1:  Iter= 25 NonCon=     1 RMS=1.97D-09 Max=5.89D-08 NDo=     1
 LinEq1:  Iter= 26 NonCon=     1 RMS=7.70D-10 Max=9.52D-09 NDo=     1
 LinEq1:  Iter= 27 NonCon=     1 RMS=2.32D-10 Max=3.48D-09 NDo=     1
 LinEq1:  Iter= 28 NonCon=     0 RMS=4.54D-11 Max=7.97D-10 NDo=     1
 Linear equations converged to 1.000D-10 1.000D-09 after    28 iterations.
 End of Minotr F.D. properties file   721 does not exist.
 End of Minotr F.D. properties file   722 does not exist.
 End of Minotr F.D. properties file   788 does not exist.

 **********************************************************************

            Population analysis using the SCF density.

 **********************************************************************

 Orbital symmetries:
       Occupied  (A) (A) (A) (A) (A) (A) (A) (A) (A) (A) (A) (A)
                 (A) (A) (A) (A) (A) (A) (A) (A) (A) (A) (A) (A)
                 (A) (A) (A) (A) (A) (A) (A) (A) (A) (A) (A) (A)
                 (A) (A) (A) (A) (A) (A) (A) (A) (A) (A) (A) (A)
                 (A)
       Virtual   (A) (A) (A) (A) (A) (A) (A) (A) (A) (A) (A) (A)
                 (A) (A) (A) (A) (A) (A) (A) (A) (A) (A) (A) (A)
                 (A) (A) (A) (A) (A) (A) (A) (A) (A) (A) (A) (A)
                 (A) (A) (A) (A) (A) (A) (A) (A) (A) (A) (A) (A)
                 (A) (A) (A) (A) (A) (A) (A) (A) (A) (A) (A) (A)
                 (A) (A) (A) (A) (A) (A) (A) (A) (A) (A) (A) (A)
                 (A) (A) (A) (A) (A) (A) (A) (A) (A) (A) (A) (A)
                 (A) (A) (A) (A) (A) (A) (A) (A) (A) (A) (A) (A)
                 (A) (A) (A) (A) (A) (A) (A) (A) (A) (A) (A) (A)
                 (A) (A) (A) (A) (A) (A) (A) (A) (A) (A) (A) (A)
                 (A) (A) (A) (A) (A) (A) (A) (A) (A) (A) (A) (A)
                 (A) (A) (A) (A) (A) (A) (A) (A) (A) (A) (A) (A)
                 (A) (A) (A) (A) (A) (A) (A) (A) (A) (A) (A) (A)
                 (A) (A) (A) (A) (A) (A) (A) (A) (A) (A) (A) (A)
                 (A) (A) (A) (A) (A) (A) (A) (A) (A) (A) (A) (A)
                 (A) (A) (A) (A) (A) (A) (A) (A) (A) (A) (A) (A)
                 (A) (A) (A) (A) (A) (A) (A) (A) (A) (A) (A) (A)
                 (A) (A) (A) (A) (A) (A) (A) (A) (A) (A) (A) (A)
                 (A) (A) (A) (A) (A) (A) (A) (A)
 The electronic state is 1-A.
 Alpha  occ. eigenvalues --  -24.61531 -24.60670 -14.37737 -14.31728 -10.25899
 Alpha  occ. eigenvalues --  -10.23980 -10.23551 -10.21872 -10.20867 -10.20551
 Alpha  occ. eigenvalues --  -10.19729 -10.17168 -10.16144  -6.81483  -1.16352
 Alpha  occ. eigenvalues --   -1.13067  -1.02095  -0.96107  -0.83533  -0.83294
 Alpha  occ. eigenvalues --   -0.76849  -0.73006  -0.69050  -0.62478  -0.61897
 Alpha  occ. eigenvalues --   -0.58262  -0.57206  -0.54515  -0.52458  -0.50686
 Alpha  occ. eigenvalues --   -0.48507  -0.47699  -0.47370  -0.45363  -0.44542
 Alpha  occ. eigenvalues --   -0.43327  -0.42852  -0.41103  -0.40507  -0.40248
 Alpha  occ. eigenvalues --   -0.37387  -0.36844  -0.36561  -0.35222  -0.33179
 Alpha  occ. eigenvalues --   -0.32053  -0.30655  -0.24440  -0.21784
 Alpha virt. eigenvalues --   -0.12033   0.01000   0.03411   0.03622   0.04957
 Alpha virt. eigenvalues --    0.05769   0.06993   0.08221   0.08585   0.08669
 Alpha virt. eigenvalues --    0.10567   0.11186   0.14325   0.16666   0.17962
 Alpha virt. eigenvalues --    0.18210   0.21179   0.21613   0.22501   0.23800
 Alpha virt. eigenvalues --    0.25686   0.28011   0.28562   0.28722   0.31625
 Alpha virt. eigenvalues --    0.32778   0.34827   0.35203   0.35910   0.37136
 Alpha virt. eigenvalues --    0.38568   0.38770   0.38848   0.39823   0.40602
 Alpha virt. eigenvalues --    0.40812   0.42114   0.42784   0.44312   0.45407
 Alpha virt. eigenvalues --    0.45716   0.46151   0.48049   0.49245   0.49653
 Alpha virt. eigenvalues --    0.51343   0.51961   0.54424   0.56558   0.57176
 Alpha virt. eigenvalues --    0.58424   0.58823   0.60274   0.61742   0.62972
 Alpha virt. eigenvalues --    0.64246   0.65461   0.66162   0.69252   0.70432
 Alpha virt. eigenvalues --    0.70910   0.73254   0.73963   0.75404   0.76968
 Alpha virt. eigenvalues --    0.78078   0.78638   0.78984   0.80722   0.83589
 Alpha virt. eigenvalues --    0.83863   0.86951   0.86977   0.88308   0.92444
 Alpha virt. eigenvalues --    0.94696   0.96845   0.97367   0.98903   1.01510
 Alpha virt. eigenvalues --    1.02080   1.03525   1.05636   1.09075   1.11998
 Alpha virt. eigenvalues --    1.13286   1.15244   1.15668   1.16930   1.18497
 Alpha virt. eigenvalues --    1.19105   1.21375   1.21522   1.24832   1.25006
 Alpha virt. eigenvalues --    1.27769   1.29567   1.32448   1.34984   1.36417
 Alpha virt. eigenvalues --    1.39723   1.42142   1.43316   1.44390   1.48881
 Alpha virt. eigenvalues --    1.50059   1.51479   1.55007   1.55925   1.57930
 Alpha virt. eigenvalues --    1.59345   1.60642   1.62608   1.67201   1.70011
 Alpha virt. eigenvalues --    1.71895   1.75661   1.76431   1.79108   1.79567
 Alpha virt. eigenvalues --    1.80103   1.83597   1.85986   1.87110   1.88519
 Alpha virt. eigenvalues --    1.89085   1.90593   1.94374   1.95069   1.95588
 Alpha virt. eigenvalues --    1.97858   2.01485   2.04616   2.08045   2.14586
 Alpha virt. eigenvalues --    2.20946   2.24227   2.26316   2.28522   2.30155
 Alpha virt. eigenvalues --    2.32976   2.36064   2.36820   2.38213   2.39910
 Alpha virt. eigenvalues --    2.41844   2.43060   2.44541   2.47611   2.49131
 Alpha virt. eigenvalues --    2.52480   2.54096   2.55678   2.59175   2.65376
 Alpha virt. eigenvalues --    2.68075   2.71187   2.72844   2.74385   2.80261
 Alpha virt. eigenvalues --    2.81803   2.87058   2.92677   2.94894   2.98878
 Alpha virt. eigenvalues --    3.00713   3.03781   3.07704   3.09491   3.13933
 Alpha virt. eigenvalues --    3.16062   3.23304   3.25022   3.26742   3.29298
 Alpha virt. eigenvalues --    3.35545   3.38056   3.41087   3.42031   3.45486
 Alpha virt. eigenvalues --    3.47475   3.54311   3.61534   3.71956   3.78543
 Alpha virt. eigenvalues --    3.82029   3.83086   3.84387   3.85418   3.87333
 Alpha virt. eigenvalues --    3.88698   3.96040   3.99643   4.06106   4.13868
 Alpha virt. eigenvalues --    4.17497   4.26624   4.37500   4.39867   4.55767
 Alpha virt. eigenvalues --    4.68701   4.75265   5.01820   5.07280   6.17196
 Alpha virt. eigenvalues --    6.18681   6.19529   6.34477   6.38307   6.50994
 Alpha virt. eigenvalues --   14.59883  23.34137  23.43666  23.56069  23.59923
 Alpha virt. eigenvalues --   23.79408  24.07456  24.25774  24.29206  24.36168
 Alpha virt. eigenvalues --   35.51813  35.55760  66.78835  66.82710
          Condensed to atoms (all electrons):
               1          2          3          4          5          6
     1  C    4.790341   0.441924  -0.057922  -0.012561  -0.019423   0.392608
     2  N    0.441924   6.583201   0.297081  -0.049605  -0.005622  -0.050650
     3  B   -0.057922   0.297081   3.285002   0.283032  -0.059646  -0.000005
     4  N   -0.012561  -0.049605   0.283032   6.424094   0.420253  -0.044350
     5  C   -0.019423  -0.005622  -0.059646   0.420253   4.862447   0.455386
     6  C    0.392608  -0.050650  -0.000005  -0.044350   0.455386   5.177389
     7  C    0.488579  -0.089271   0.000750   0.000329   0.006769  -0.061458
     8  C   -0.080087  -0.068446   0.002300  -0.000153  -0.000636   0.004554
     9  C   -0.124719   0.435294  -0.026987   0.002120   0.002086   0.005920
    10  C    0.002145   0.003248  -0.031646   0.488979  -0.160774   0.006225
    11  C   -0.000520  -0.000467   0.003333  -0.035326  -0.069662   0.003623
    12  C    0.006172   0.000600  -0.000412  -0.076200   0.414555  -0.064715
    13  F    0.002602  -0.045740   0.447989  -0.032707   0.001753  -0.001444
    14  F   -0.002747  -0.039068   0.405328  -0.035704  -0.002998   0.001284
    15  H   -0.030873   0.002908   0.001469   0.004188  -0.044821   0.393240
    16  H    0.007900   0.005261  -0.000131   0.000006  -0.000002  -0.000235
    17  H    0.000005   0.000003   0.000004   0.003383   0.008622  -0.000300
    18  H   -0.000063   0.000010   0.000064   0.002926  -0.039922   0.001154
    19  H    0.004733  -0.029790  -0.005532   0.000334   0.000168  -0.000519
    20  H   -0.048603   0.005514  -0.000002   0.000001   0.000220  -0.002293
    21  H    0.000140   0.000470  -0.005070  -0.027084   0.005688  -0.000857
               7          8          9         10         11         12
     1  C    0.488579  -0.080087  -0.124719   0.002145  -0.000520   0.006172
     2  N   -0.089271  -0.068446   0.435294   0.003248  -0.000467   0.000600
     3  B    0.000750   0.002300  -0.026987  -0.031646   0.003333  -0.000412
     4  N    0.000329  -0.000153   0.002120   0.488979  -0.035326  -0.076200
     5  C    0.006769  -0.000636   0.002086  -0.160774  -0.069662   0.414555
     6  C   -0.061458   0.004554   0.005920   0.006225   0.003623  -0.064715
     7  C    5.115086   0.508157  -0.062112   0.000118   0.000017  -0.000258
     8  C    0.508157   5.117088   0.504940  -0.000019  -0.000002   0.000005
     9  C   -0.062112   0.504940   4.888739  -0.000376  -0.000015   0.000078
    10  C    0.000118  -0.000019  -0.000376   4.953960   0.408908  -0.067330
    11  C    0.000017  -0.000002  -0.000015   0.408908   5.043559   0.581231
    12  C   -0.000258   0.000005   0.000078  -0.067330   0.581231   5.047767
    13  F    0.000356  -0.000326  -0.002482  -0.003468  -0.000239   0.000078
    14  F   -0.000229   0.001008   0.011240   0.010767   0.000892  -0.000207
    15  H   -0.002699   0.000039  -0.000377  -0.000509   0.000467  -0.005749
    16  H   -0.040016   0.394452  -0.039871  -0.000001   0.000000  -0.000000
    17  H   -0.000001   0.000000  -0.000000  -0.040810   0.400528  -0.037511
    18  H    0.000002  -0.000000  -0.000000   0.008750  -0.036736   0.393535
    19  H    0.004823  -0.040986   0.393013  -0.000033  -0.000003   0.000006
    20  H    0.397169  -0.034172   0.005846  -0.000002   0.000001  -0.000001
    21  H    0.000010  -0.000004  -0.000046   0.387832  -0.041947   0.004711
              13         14         15         16         17         18
     1  C    0.002602  -0.002747  -0.030873   0.007900   0.000005  -0.000063
     2  N   -0.045740  -0.039068   0.002908   0.005261   0.000003   0.000010
     3  B    0.447989   0.405328   0.001469  -0.000131   0.000004   0.000064
     4  N   -0.032707  -0.035704   0.004188   0.000006   0.003383   0.002926
     5  C    0.001753  -0.002998  -0.044821  -0.000002   0.008622  -0.039922
     6  C   -0.001444   0.001284   0.393240  -0.000235  -0.000300   0.001154
     7  C    0.000356  -0.000229  -0.002699  -0.040016  -0.000001   0.000002
     8  C   -0.000326   0.001008   0.000039   0.394452   0.000000  -0.000000
     9  C   -0.002482   0.011240  -0.000377  -0.039871  -0.000000  -0.000000
    10  C   -0.003468   0.010767  -0.000509  -0.000001  -0.040810   0.008750
    11  C   -0.000239   0.000892   0.000467   0.000000   0.400528  -0.036736
    12  C    0.000078  -0.000207  -0.005749  -0.000000  -0.037511   0.393535
    13  F    8.914259  -0.021972   0.000003   0.000004   0.000001   0.000001
    14  F   -0.021972   8.937794   0.000014   0.000008   0.000007   0.000001
    15  H    0.000003   0.000014   0.448872   0.000004  -0.000019   0.001428
    16  H    0.000004   0.000008   0.000004   0.484485  -0.000000  -0.000000
    17  H    0.000001   0.000007  -0.000019  -0.000000   0.453403  -0.004631
    18  H    0.000001   0.000001   0.001428  -0.000000  -0.004631   0.453381
    19  H    0.000196   0.004404   0.000006  -0.000915  -0.000000  -0.000000
    20  H    0.000006   0.000003   0.001626  -0.001186  -0.000000  -0.000001
    21  H    0.000053   0.004990   0.000011  -0.000000  -0.000285  -0.000147
              19         20         21
     1  C    0.004733  -0.048603   0.000140
     2  N   -0.029790   0.005514   0.000470
     3  B   -0.005532  -0.000002  -0.005070
     4  N    0.000334   0.000001  -0.027084
     5  C    0.000168   0.000220   0.005688
     6  C   -0.000519  -0.002293  -0.000857
     7  C    0.004823   0.397169   0.000010
     8  C   -0.040986  -0.034172  -0.000004
     9  C    0.393013   0.005846  -0.000046
    10  C   -0.000033  -0.000002   0.387832
    11  C   -0.000003   0.000001  -0.041947
    12  C    0.000006  -0.000001   0.004711
    13  F    0.000196   0.000006   0.000053
    14  F    0.004404   0.000003   0.004990
    15  H    0.000006   0.001626   0.000011
    16  H   -0.000915  -0.001186  -0.000000
    17  H   -0.000000  -0.000000  -0.000285
    18  H   -0.000000  -0.000001  -0.000147
    19  H    0.449566  -0.000073  -0.000004
    20  H   -0.000073   0.480341  -0.000000
    21  H   -0.000004  -0.000000   0.426346
 Mulliken charges:
               1
     1  C    0.240370
     2  N   -0.396856
     3  B    0.461001
     4  N   -0.315955
     5  C    0.225558
     6  C   -0.214557
     7  C   -0.266121
     8  C   -0.307713
     9  C    0.007710
    10  C    0.034035
    11  C   -0.257641
    12  C   -0.196354
    13  F   -0.258922
    14  F   -0.274815
    15  H    0.230772
    16  H    0.190237
    17  H    0.217600
    18  H    0.220246
    19  H    0.220605
    20  H    0.195607
    21  H    0.245192
 Sum of Mulliken charges =  -0.00000
 Mulliken charges with hydrogens summed into heavy atoms:
               1
     1  C    0.240370
     2  N   -0.396856
     3  B    0.461001
     4  N   -0.315955
     5  C    0.225558
     6  C    0.016215
     7  C   -0.070514
     8  C   -0.117475
     9  C    0.228315
    10  C    0.279228
    11  C   -0.040041
    12  C    0.023892
    13  F   -0.258922
    14  F   -0.274815
 Electronic spatial extent (au):  <R**2>=           2290.3352
 Charge=             -0.0000 electrons
 Dipole moment (field-independent basis, Debye):
    X=              3.6726    Y=             -4.0711    Z=             -1.2734  Tot=              5.6288
 Quadrupole moment (field-independent basis, Debye-Ang):
   XX=            -63.0316   YY=            -73.9000   ZZ=            -85.4275
   XY=             -0.9801   XZ=             -1.0460   YZ=             -4.1058
 Traceless Quadrupole moment (field-independent basis, Debye-Ang):
   XX=             11.0881   YY=              0.2197   ZZ=            -11.3078
   XY=             -0.9801   XZ=             -1.0460   YZ=             -4.1058
 Octapole moment (field-independent basis, Debye-Ang**2):
  XXX=             31.7312  YYY=             -9.6690  ZZZ=              2.8815  XYY=              6.8936
  XXY=             13.2242  XXZ=            -11.9315  XZZ=              4.2967  YZZ=              7.3130
  YYZ=              3.6846  XYZ=             -0.5386
 Hexadecapole moment (field-independent basis, Debye-Ang**3):
 XXXX=          -1748.2126 YYYY=           -795.8057 ZZZZ=           -217.4228 XXXY=            -19.5518
 XXXZ=            -16.5881 YYYX=             -8.7601 YYYZ=            -10.1921 ZZZX=             -5.3076
 ZZZY=             -3.1790 XXYY=           -408.4412 XXZZ=           -391.8851 YYZZ=           -191.9941
 XXYZ=            -10.8057 YYXZ=              0.1006 ZZXY=             -2.8405
 N-N= 8.641962536364D+02 E-N=-3.326023817961D+03  KE= 6.793557187150D+02
 Calling FoFJK, ICntrl=  10005127 FMM=F ISym2X=0 I1Cent= 0 IOpClX= 0 NMat=1 NMatS=1 NMatT=0.
 ***** Axes restored to original set *****
 -------------------------------------------------------------------
 Center     Atomic                   Forces (Hartrees/Bohr)
 Number     Number              X              Y              Z
 -------------------------------------------------------------------
      1        6           0.058116482    0.010943225    0.008649076
      2        7           0.008909141   -0.004846302    0.000536500
      3        5          -0.011565693   -0.004045795   -0.001879231
      4        7           0.006028504   -0.006342290    0.002235778
      5        6           0.052675968    0.005999892   -0.003350439
      6        6          -0.055564100   -0.020407878    0.007164438
      7        6          -0.048376734   -0.007159076   -0.008295067
      8        6          -0.007353253   -0.003748567   -0.001832646
      9        6          -0.007494147   -0.002593581    0.002160930
     10        6           0.023966710    0.012231545   -0.009650909
     11        6           0.030382045    0.063311833   -0.018906618
     12        6          -0.057394604   -0.051237385    0.019611072
     13        9           0.002637213    0.001692844    0.005525465
     14        9           0.001290924    0.005287402   -0.003632821
     15        1           0.000434278    0.001227978    0.000429954
     16        1           0.003268427    0.000312638   -0.000208022
     17        1          -0.001083842    0.000661234    0.001586503
     18        1          -0.000111369    0.001681519   -0.000270190
     19        1          -0.000183741   -0.001332679    0.000426833
     20        1           0.000905760    0.000506835   -0.000646140
     21        1           0.000512030   -0.002143391    0.000345533
 -------------------------------------------------------------------
 Cartesian Forces:  Max     0.063311833 RMS     0.020082564

 GradGradGradGradGradGradGradGradGradGradGradGradGradGradGradGradGradGrad
 Berny optimization.
 FormGI is forming the generalized inverse of G from B-inverse, IUseBI=4.
 Internal  Forces:  Max     0.070690369 RMS     0.010065887
 Search for a local minimum.
 Step number   1 out of a maximum of  126
 All quantities printed in internal units (Hartrees-Bohrs-Radians)
 Mixed Optimization -- RFO/linear search
 Second derivative matrix not updated -- first step.
 ITU=  0
     Eigenvalues ---    0.00816   0.01084   0.01230   0.01335   0.01458
     Eigenvalues ---    0.01644   0.01837   0.01962   0.01994   0.02130
     Eigenvalues ---    0.02166   0.02240   0.02383   0.02417   0.02553
     Eigenvalues ---    0.02719   0.08123   0.10602   0.12814   0.13541
     Eigenvalues ---    0.15780   0.15910   0.15933   0.15966   0.15996
     Eigenvalues ---    0.15999   0.15999   0.22154   0.22235   0.23044
     Eigenvalues ---    0.23615   0.23994   0.24169   0.24223   0.25056
     Eigenvalues ---    0.29221   0.29468   0.30636   0.31680   0.35414
     Eigenvalues ---    0.35568   0.35641   0.35653   0.35698   0.35901
     Eigenvalues ---    0.36080   0.36521   0.38287   0.41533   0.47692
     Eigenvalues ---    0.48971   0.49605   0.51783   0.55626   0.62685
     Eigenvalues ---    0.63130   0.64305
 RFO step:  Lambda=-2.18614018D-02 EMin= 8.16115835D-03
 Linear search not attempted -- first point.
 Iteration  1 RMS(Cart)=  0.03239725 RMS(Int)=  0.00041020
 Iteration  2 RMS(Cart)=  0.00053130 RMS(Int)=  0.00021067
 Iteration  3 RMS(Cart)=  0.00000029 RMS(Int)=  0.00021067
 Variable       Old X    -DE/DX   Delta X   Delta X   Delta X     New X
                                 (Linear)    (Quad)   (Total)
    R1        2.68651  -0.00314   0.00000  -0.00926  -0.00928   2.67723
    R2        2.85770  -0.01298   0.00000  -0.03721  -0.03733   2.82038
    R3        2.45581   0.04709   0.00000   0.07095   0.07095   2.52676
    R4        2.98468   0.00511   0.00000   0.01126   0.01124   2.99593
    R5        2.55379   0.01261   0.00000   0.01911   0.01917   2.57296
    R6        2.87757   0.00946   0.00000   0.02759   0.02771   2.90529
    R7        2.60918   0.00569   0.00000   0.01113   0.01113   2.62031
    R8        2.60266   0.00637   0.00000   0.01230   0.01230   2.61495
    R9        2.66206   0.01181   0.00000   0.02388   0.02397   2.68603
   R10        2.50981   0.02082   0.00000   0.03078   0.03086   2.54066
   R11        2.47047   0.04954   0.00000   0.07707   0.07708   2.54755
   R12        2.82322  -0.02002   0.00000  -0.05610  -0.05623   2.76699
   R13        2.04556  -0.00114   0.00000  -0.00301  -0.00301   2.04256
   R14        2.87171  -0.00617   0.00000  -0.01702  -0.01712   2.85460
   R15        2.04237  -0.00080   0.00000  -0.00210  -0.00210   2.04027
   R16        2.59167   0.00192   0.00000   0.00016   0.00010   2.59177
   R17        2.05007  -0.00321   0.00000  -0.00853  -0.00853   2.04155
   R18        2.03956  -0.00133   0.00000  -0.00347  -0.00347   2.03609
   R19        2.71921  -0.01175   0.00000  -0.02498  -0.02487   2.69434
   R20        2.04647  -0.00201   0.00000  -0.00530  -0.00530   2.04117
   R21        2.46730   0.07069   0.00000   0.10807   0.10806   2.57536
   R22        2.04763  -0.00141   0.00000  -0.00374  -0.00374   2.04389
   R23        2.04628  -0.00166   0.00000  -0.00438  -0.00438   2.04189
    A1        2.07545   0.00372   0.00000   0.00592   0.00567   2.08112
    A2        1.90836  -0.00746   0.00000  -0.01639  -0.01632   1.89205
    A3        2.28455   0.00397   0.00000   0.01189   0.01204   2.29659
    A4        2.13690   0.00436   0.00000   0.00786   0.00776   2.14467
    A5        1.92475  -0.00231   0.00000  -0.00847  -0.00843   1.91631
    A6        2.22078  -0.00209   0.00000   0.00002  -0.00002   2.22076
    A7        1.78618   0.00732   0.00000   0.02157   0.02172   1.80790
    A8        1.87396  -0.00070   0.00000   0.00801   0.00824   1.88220
    A9        1.90496  -0.00004   0.00000   0.00781   0.00767   1.91263
   A10        1.98168  -0.00261   0.00000  -0.02212  -0.02244   1.95924
   A11        1.94967  -0.00395   0.00000  -0.00654  -0.00673   1.94295
   A12        1.95662   0.00078   0.00000  -0.00434  -0.00459   1.95203
   A13        2.19679  -0.01034   0.00000  -0.03484  -0.03474   2.16205
   A14        2.20606  -0.00426   0.00000  -0.00781  -0.00786   2.19819
   A15        1.86317   0.01474   0.00000   0.04388   0.04382   1.90699
   A16        2.12987  -0.00325   0.00000   0.00345   0.00365   2.13352
   A17        1.86034  -0.00146   0.00000  -0.01768  -0.01795   1.84239
   A18        2.29096   0.00465   0.00000   0.01357   0.01359   2.30455
   A19        2.06197  -0.00138   0.00000   0.00425   0.00408   2.06606
   A20        2.06142   0.00134   0.00000   0.00100   0.00102   2.06244
   A21        2.14881   0.00024   0.00000  -0.00339  -0.00332   2.14548
   A22        1.85206   0.00112   0.00000   0.01399   0.01381   1.86586
   A23        2.24727  -0.00110   0.00000  -0.00997  -0.00988   2.23739
   A24        2.18383  -0.00002   0.00000  -0.00407  -0.00399   2.17984
   A25        1.86215  -0.00191   0.00000  -0.01547  -0.01572   1.84642
   A26        2.19237   0.00129   0.00000   0.00933   0.00944   2.20180
   A27        2.22720   0.00060   0.00000   0.00569   0.00581   2.23301
   A28        1.87568   0.01067   0.00000   0.02817   0.02802   1.90369
   A29        2.11218  -0.00491   0.00000  -0.01119  -0.01122   2.10096
   A30        2.29317  -0.00569   0.00000  -0.01564  -0.01566   2.27751
   A31        1.94128  -0.00864   0.00000  -0.03631  -0.03628   1.90501
   A32        2.09901   0.00529   0.00000   0.02343   0.02334   2.12235
   A33        2.24274   0.00333   0.00000   0.01254   0.01241   2.25515
   A34        1.88825  -0.00301   0.00000   0.00440   0.00442   1.89267
   A35        2.16205   0.00104   0.00000  -0.00483  -0.00485   2.15720
   A36        2.23282   0.00197   0.00000   0.00036   0.00036   2.23317
   A37        1.86982  -0.00153   0.00000   0.00742   0.00715   1.87697
   A38        2.14807   0.00121   0.00000  -0.00046  -0.00041   2.14765
   A39        2.26201   0.00041   0.00000  -0.00508  -0.00511   2.25690
    D1       -0.23239   0.00195   0.00000   0.01321   0.01301  -0.21938
    D2        2.94832   0.00307   0.00000   0.02825   0.02796   2.97627
    D3        3.07358   0.00038   0.00000   0.00427   0.00411   3.07769
    D4       -0.02890   0.00150   0.00000   0.01930   0.01906  -0.00984
    D5       -0.17796   0.00018   0.00000   0.00251   0.00263  -0.17533
    D6        3.11731  -0.00131   0.00000  -0.01010  -0.00998   3.10733
    D7        2.75793   0.00089   0.00000   0.01041   0.01060   2.76853
    D8       -0.22999  -0.00060   0.00000  -0.00220  -0.00201  -0.23200
    D9       -0.00650  -0.00030   0.00000  -0.00106  -0.00116  -0.00766
   D10        3.12820  -0.00034   0.00000  -0.00869  -0.00863   3.11956
   D11       -2.95745  -0.00186   0.00000  -0.01010  -0.01015  -2.96760
   D12        0.17724  -0.00190   0.00000  -0.01774  -0.01762   0.15962
   D13        0.54897   0.00252   0.00000  -0.00725  -0.00745   0.54151
   D14       -1.54178   0.00223   0.00000   0.00388   0.00371  -1.53807
   D15        2.61672   0.00174   0.00000  -0.00025  -0.00028   2.61643
   D16       -2.63871   0.00123   0.00000  -0.02511  -0.02527  -2.66398
   D17        1.55372   0.00094   0.00000  -0.01399  -0.01410   1.53962
   D18       -0.57096   0.00045   0.00000  -0.01811  -0.01810  -0.58906
   D19        0.05384  -0.00159   0.00000  -0.02879  -0.02904   0.02480
   D20        3.13254  -0.00068   0.00000  -0.00980  -0.00977   3.12276
   D21       -3.04629  -0.00058   0.00000  -0.01306  -0.01347  -3.05976
   D22        0.03241   0.00033   0.00000   0.00594   0.00579   0.03820
   D23       -0.59780   0.00216   0.00000   0.01650   0.01634  -0.58145
   D24        2.76849  -0.00040   0.00000   0.00344   0.00343   2.77192
   D25        1.41602   0.00445   0.00000   0.02866   0.02835   1.44436
   D26       -1.50089   0.00189   0.00000   0.01561   0.01543  -1.48545
   D27       -2.63364  -0.00010   0.00000  -0.00167  -0.00172  -2.63536
   D28        0.73264  -0.00265   0.00000  -0.01473  -0.01463   0.71801
   D29        0.28844  -0.00011   0.00000  -0.00159  -0.00188   0.28656
   D30       -2.91420  -0.00085   0.00000  -0.01120  -0.01120  -2.92540
   D31       -3.04155   0.00058   0.00000   0.00568   0.00526  -3.03629
   D32        0.03900  -0.00016   0.00000  -0.00393  -0.00405   0.03494
   D33        2.94395  -0.00013   0.00000  -0.01007  -0.01022   2.93373
   D34       -0.18070   0.00061   0.00000   0.00932   0.00902  -0.17168
   D35       -0.00794   0.00001   0.00000  -0.01366  -0.01398  -0.02192
   D36       -3.13260   0.00075   0.00000   0.00572   0.00526  -3.12734
   D37        0.16300  -0.00272   0.00000  -0.01311  -0.01286   0.15014
   D38       -3.14050  -0.00105   0.00000   0.00063   0.00085  -3.13966
   D39       -2.90073  -0.00142   0.00000   0.00049   0.00060  -2.90013
   D40        0.07895   0.00025   0.00000   0.01424   0.01431   0.09326
   D41       -0.05891   0.00173   0.00000   0.02402   0.02367  -0.03523
   D42       -3.12103   0.00071   0.00000   0.00148   0.00090  -3.12013
   D43        3.01383   0.00047   0.00000   0.01250   0.01238   3.02620
   D44       -0.04830  -0.00055   0.00000  -0.01004  -0.01040  -0.05870
   D45        0.03880  -0.00085   0.00000  -0.01683  -0.01656   0.02224
   D46       -3.04807  -0.00032   0.00000  -0.00862  -0.00846  -3.05654
   D47       -3.09622  -0.00081   0.00000  -0.00951  -0.00936  -3.10558
   D48        0.10009  -0.00028   0.00000  -0.00130  -0.00127   0.09882
   D49       -0.05565   0.00133   0.00000   0.02736   0.02738  -0.02827
   D50       -3.12538   0.00014   0.00000   0.00515   0.00502  -3.12036
   D51        3.02979   0.00081   0.00000   0.01907   0.01923   3.04901
   D52       -0.03995  -0.00038   0.00000  -0.00315  -0.00313  -0.04308
   D53       -0.03111   0.00146   0.00000   0.03049   0.02993  -0.00118
   D54        3.09942   0.00117   0.00000   0.02468   0.02406   3.12347
   D55        3.09179   0.00066   0.00000   0.00916   0.00885   3.10064
   D56       -0.06087   0.00037   0.00000   0.00336   0.00298  -0.05789
   D57        0.05339  -0.00127   0.00000  -0.02985  -0.03049   0.02289
   D58        3.10853  -0.00012   0.00000  -0.00499  -0.00547   3.10306
   D59       -3.07656  -0.00095   0.00000  -0.02370  -0.02425  -3.10081
   D60       -0.02141   0.00020   0.00000   0.00117   0.00077  -0.02064
         Item               Value     Threshold  Converged?
 Maximum Force            0.070690     0.000450     NO 
 RMS     Force            0.010066     0.000300     NO 
 Maximum Displacement     0.107291     0.001800     NO 
 RMS     Displacement     0.032453     0.001200     NO 
 Predicted change in Energy=-1.150241D-02
 GradGradGradGradGradGradGradGradGradGradGradGradGradGradGradGradGradGrad

                          Input orientation:                          
 ---------------------------------------------------------------------
 Center     Atomic      Atomic             Coordinates (Angstroms)
 Number     Number       Type             X           Y           Z
 ---------------------------------------------------------------------
      1          6           0       -1.237374   -1.108640    0.169493
      2          7           0       -1.245746    0.291612   -0.045788
      3          5           0        0.024823    1.207655    0.199032
      4          7           0        1.207215    0.276647   -0.115302
      5          6           0        1.203146   -1.122117    0.137251
      6          6           0        0.065950   -1.807553    0.370390
      7          6           0       -2.471166   -1.576432   -0.046794
      8          6           0       -3.331784   -0.391284   -0.416441
      9          6           0       -2.493934    0.694534   -0.411167
     10          6           0        2.452412    0.664852   -0.441430
     11          6           0        3.323185   -0.462826   -0.387097
     12          6           0        2.593435   -1.553734   -0.020120
     13          9           0        0.010313    1.608307    1.526419
     14          9           0       -0.008641    2.287845   -0.665201
     15          1           0        0.050151   -2.870583    0.565341
     16          1           0       -4.399076   -0.405959   -0.583195
     17          1           0        4.377669   -0.416675   -0.623202
     18          1           0        2.907686   -2.581476    0.091783
     19          1           0       -2.696664    1.735598   -0.600875
     20          1           0       -2.817179   -2.597640    0.008741
     21          1           0        2.684290    1.696655   -0.661235
 ---------------------------------------------------------------------
                    Distance matrix (angstroms):
                    1          2          3          4          5
     1  C    0.000000
     2  N    1.416729   0.000000
     3  B    2.638037   1.585376   0.000000
     4  N    2.824207   2.453991   1.537411   0.000000
     5  C    2.440771   2.833585   2.611532   1.421387   0.000000
     6  C    1.492479   2.510029   3.020353   2.425339   1.348106
     7  C    1.337106   2.234109   3.747204   4.119354   3.706864
     8  C    2.290081   2.226047   3.768584   4.597753   4.626692
     9  C    2.273223   1.361551   2.641926   3.736398   4.155645
    10  C    4.139205   3.737942   2.568660   1.344462   2.255836
    11  C    4.639565   4.643360   3.743426   2.257880   2.281265
    12  C    3.861239   4.259726   3.777706   2.298034   1.464228
    13  F    3.283256   2.404830   1.386611   2.429226   3.287530
    14  F    3.707103   2.428796   1.383774   2.413631   3.706778
    15  H    2.217851   3.471643   4.094734   3.421568   2.137707
    16  H    3.325155   3.273973   4.773522   5.667042   5.693576
    17  H    5.712784   5.697181   4.718240   3.284880   3.339691
    18  H    4.399638   5.052184   4.762344   3.332169   2.244383
    19  H    3.288264   2.120939   2.885319   4.195783   4.890796
    20  H    2.176866   3.289400   4.753258   4.946985   4.284472
    21  H    4.892774   4.218779   2.837594   2.120428   3.282810
                    6          7          8          9         10
     6  C    0.000000
     7  C    2.581554   0.000000
     8  C    3.764242   1.510588   0.000000
     9  C    3.663916   2.300125   1.371504   0.000000
    10  C    3.530869   5.424086   5.879878   4.946527   0.000000
    11  C    3.604394   5.910197   6.655418   5.931183   1.425782
    12  C    2.570039   5.064722   6.051164   5.575747   2.262634
    13  F    3.606605   4.333048   4.352319   3.295523   3.275116
    14  F    4.224962   4.623754   4.275851   2.963082   2.956512
    15  H    1.080874   2.899410   4.306774   4.487315   4.391326
    16  H    4.776007   2.318312   1.080339   2.206863   6.936109
    17  H    4.638177   6.970210   7.712267   6.964099   2.215707
    18  H    2.958385   5.473698   6.632211   6.337405   3.321180
    19  H    4.596663   3.365620   2.227335   1.077452   5.261644
    20  H    3.011223   1.079665   2.305126   3.334550   6.214105
    21  H    4.494377   6.137537   6.372798   5.280225   1.080139
                   11         12         13         14         15
    11  C    0.000000
    12  C    1.362823   0.000000
    13  F    4.350431   4.366097   0.000000
    14  F    4.329503   4.684513   2.294631   0.000000
    15  H    4.173390   2.923209   4.581017   5.303496   0.000000
    16  H    7.724959   7.108421   5.286818   5.151623   5.214319
    17  H    1.081579   2.200023   5.272117   5.153243   5.114852
    18  H    2.211480   1.080523   5.292186   5.726105   2.910901
    19  H    6.412281   6.256367   3.445187   2.744920   5.488347
    20  H    6.512925   5.510473   5.290374   5.675390   2.933579
    21  H    2.268633   3.314259   3.455979   2.757063   5.413209
                   16         17         18         19         20
    16  H    0.000000
    17  H    8.776843   0.000000
    18  H    7.653577   2.712640   0.000000
    19  H    2.735833   7.394523   7.108140   0.000000
    20  H    2.766993   7.544654   5.725491   4.377569   0.000000
    21  H    7.389258   2.708347   4.349638   5.381433   7.011134
                   21
    21  H    0.000000
 Stoichiometry    C9H7BF2N2
 Framework group  C1[X(C9H7BF2N2)]
 Deg. of freedom    57
 Full point group                 C1      NOp   1
 Largest Abelian subgroup         C1      NOp   1
 Largest concise Abelian subgroup C1      NOp   1
                         Standard orientation:                         
 ---------------------------------------------------------------------
 Center     Atomic      Atomic             Coordinates (Angstroms)
 Number     Number       Type             X           Y           Z
 ---------------------------------------------------------------------
      1          6           0       -1.222575   -1.129528    0.165953
      2          7           0       -1.257170    0.271944   -0.038496
      3          5           0       -0.003824    1.209631    0.213073
      4          7           0        1.195615    0.303315   -0.108751
      5          6           0        1.217759   -1.097190    0.132984
      6          6           0        0.093650   -1.805517    0.361108
      7          6           0       -2.447506   -1.618589   -0.053628
      8          6           0       -3.330245   -0.446895   -0.413882
      9          6           0       -2.512808    0.654303   -0.400430
     10          6           0        2.433217    0.717207   -0.432187
     11          6           0        3.324911   -0.394403   -0.386794
     12          6           0        2.615799   -1.501547   -0.028074
     13          9           0       -0.025280    1.599678    1.543521
     14          9           0       -0.057792    2.295651   -0.642776
     15          1           0        0.097775   -2.870131    0.547841
     16          1           0       -4.397143   -0.480205   -0.580472
     17          1           0        4.378256   -0.326751   -0.622805
     18          1           0        2.949226   -2.524076    0.075802
     19          1           0       -2.735012    1.692835   -0.582034
     20          1           0       -2.774373   -2.646478   -0.005900
     21          1           0        2.645706    1.754826   -0.644069
 ---------------------------------------------------------------------
 Rotational constants (GHZ):           1.2528768           0.6477581           0.4802721
 Standard basis: 6-311G(d) (5D, 7F)
 There are   287 symmetry adapted cartesian basis functions of A   symmetry.
 There are   273 symmetry adapted basis functions of A   symmetry.
   273 basis functions,   483 primitive gaussians,   287 cartesian basis functions
    49 alpha electrons       49 beta electrons
       nuclear repulsion energy       859.2344919582 Hartrees.
 NAtoms=   21 NActive=   21 NUniq=   21 SFac= 1.00D+00 NAtFMM=   60 NAOKFM=F Big=F
 Integral buffers will be    131072 words long.
 Regular integral format.
 Two-electron integral symmetry is turned on.
 One-electron integrals computed using PRISM.
 NBasis=   273 RedAO= T EigKep=  3.14D-04  NBF=   273
 NBsUse=   273 1.00D-06 EigRej= -1.00D+00 NBFU=   273
 Initial guess from the checkpoint file:  "/hard/gauscr/Gau-115131.chk"
 B after Tr=     0.000000    0.000000    0.000000
         Rot=    0.999943   -0.002679   -0.000757    0.010348 Ang=  -1.23 deg.
 ExpMin= 9.89D-02 ExpMax= 1.14D+04 ExpMxC= 1.72D+03 IAcc=2 IRadAn=         4 AccDes= 0.00D+00
 Harris functional with IExCor=  402 and IRadAn=       4 diagonalized for initial guess.
 HarFok:  IExCor=  402 AccDes= 0.00D+00 IRadAn=         4 IDoV= 1 UseB2=F ITyADJ=14
 ICtDFT=  3500011 ScaDFX=  1.000000  1.000000  1.000000  1.000000
 FoFCou: FMM=F IPFlag=           0 FMFlag=      100000 FMFlg1=           0
         NFxFlg=           0 DoJE=T BraDBF=F KetDBF=T FulRan=T
         wScrn=  0.000000 ICntrl=       500 IOpCl=  0 I1Cent=   200000004 NGrid=           0
         NMat0=    1 NMatS0=      1 NMatT0=    0 NMatD0=    1 NMtDS0=    0 NMtDT0=    0
 Petite list used in FoFCou.
 Requested convergence on RMS density matrix=1.00D-08 within 128 cycles.
 Requested convergence on MAX density matrix=1.00D-06.
 Requested convergence on             energy=1.00D-06.
 No special actions if energy rises.
 Integral accuracy reduced to 1.0D-05 until final iterations.
 Initial convergence to 1.0D-05 achieved.  Increase integral accuracy.
 SCF Done:  E(RB3LYP) =  -681.511575189     A.U. after   13 cycles
            NFock= 13  Conv=0.84D-08     -V/T= 2.0038
 DoSCS=F DFT=T ScalE2(SS,OS)=  1.000000  1.000000
 ExpMin= 9.89D-02 ExpMax= 1.14D+04 ExpMxC= 1.72D+03 IAcc=3 IRadAn=         5 AccDes= 0.00D+00
 HarFok:  IExCor=  205 AccDes= 0.00D+00 IRadAn=         5 IDoV=-2 UseB2=F ITyADJ=14
 ICtDFT= 12500011 ScaDFX=  1.000000  1.000000  1.000000  1.000000
 Range of M.O.s used for correlation:    15   273
 NBasis=   273 NAE=    49 NBE=    49 NFC=    14 NFV=     0
 NROrb=    259 NOA=    35 NOB=    35 NVA=   224 NVB=   224

 **** Warning!!: The largest alpha MO coefficient is  0.10582476D+02

 Orbital symmetries:
       Occupied  (A) (A) (A) (A) (A) (A) (A) (A) (A) (A) (A) (A)
                 (A) (A) (A) (A) (A) (A) (A) (A) (A) (A) (A) (A)
                 (A) (A) (A) (A) (A) (A) (A) (A) (A) (A) (A) (A)
                 (A) (A) (A) (A) (A) (A) (A) (A) (A) (A) (A) (A)
                 (A)
       Virtual   (A) (A) (A) (A) (A) (A) (A) (A) (A) (A) (A) (A)
                 (A) (A) (A) (A) (A) (A) (A) (A) (A) (A) (A) (A)
                 (A) (A) (A) (A) (A) (A) (A) (A) (A) (A) (A) (A)
                 (A) (A) (A) (A) (A) (A) (A) (A) (A) (A) (A) (A)
                 (A) (A) (A) (A) (A) (A) (A) (A) (A) (A) (A) (A)
                 (A) (A) (A) (A) (A) (A) (A) (A) (A) (A) (A) (A)
                 (A) (A) (A) (A) (A) (A) (A) (A) (A) (A) (A) (A)
                 (A) (A) (A) (A) (A) (A) (A) (A) (A) (A) (A) (A)
                 (A) (A) (A) (A) (A) (A) (A) (A) (A) (A) (A) (A)
                 (A) (A) (A) (A) (A) (A) (A) (A) (A) (A) (A) (A)
                 (A) (A) (A) (A) (A) (A) (A) (A) (A) (A) (A) (A)
                 (A) (A) (A) (A) (A) (A) (A) (A) (A) (A) (A) (A)
                 (A) (A) (A) (A) (A) (A) (A) (A) (A) (A) (A) (A)
                 (A) (A) (A) (A) (A) (A) (A) (A) (A) (A) (A) (A)
                 (A) (A) (A) (A) (A) (A) (A) (A) (A) (A) (A) (A)
                 (A) (A) (A) (A) (A) (A) (A) (A) (A) (A) (A) (A)
                 (A) (A) (A) (A) (A) (A) (A) (A) (A) (A) (A) (A)
                 (A) (A) (A) (A) (A) (A) (A) (A) (A) (A) (A) (A)
                 (A) (A) (A) (A) (A) (A) (A) (A)
 Generating guess from densities on rwf.
 Convergence on wavefunction:    0.000001000000000
 Iteration     1 Dimension     6 NMult     0 NNew      6
 CISAX will form     6 AO SS matrices at one time.
 Iteration     2 Dimension    12 NMult     6 NNew      6
 Iteration     3 Dimension    18 NMult    12 NNew      6
 Iteration     4 Dimension    24 NMult    18 NNew      6
 Iteration     5 Dimension    30 NMult    24 NNew      6
 Iteration     6 Dimension    36 NMult    30 NNew      6
 Iteration     7 Dimension    42 NMult    36 NNew      6
 Iteration     8 Dimension    48 NMult    42 NNew      6
 Iteration     9 Dimension    52 NMult    48 NNew      4
 Iteration    10 Dimension    56 NMult    52 NNew      4
 ***********************************************************************
 Excited states from <AA,BB:AA,BB> singles matrix:
 ***********************************************************************
 
 Ground to excited state transition densities written to RWF  633
 Ground to excited state transition electric dipole moments (Au):
       state          X           Y           Z        Dip. S.      Osc.
         1         0.7813     -0.2308      0.0281      0.6644      0.0371
         2        -2.2172     -0.1839      0.0015      4.9496      0.3834
         3        -0.6027      0.4450     -0.0308      0.5622      0.0535
 Ground to excited state transition velocity dipole moments (Au):
       state          X           Y           Z        Dip. S.      Osc.
         1        -0.0651      0.0188     -0.0017      0.0046      0.0366
         2         0.2514      0.0222     -0.0006      0.0637      0.3655
         3         0.0847     -0.0653      0.0043      0.0115      0.0535
 Ground to excited state transition magnetic dipole moments (Au):
       state          X           Y           Z
         1         0.0721     -0.1891     -1.1537
         2         0.0479      0.2081      1.1414
         3        -0.1497     -0.0767     -0.6655
 Ground to excited state transition velocity quadrupole moments (Au):
       state          XX          YY          ZZ          XY          XZ          YZ
         1         0.0381     -0.0571      0.0008     -0.0964      0.0621      0.0084
         2        -0.0569     -0.0410      0.0071     -0.1605     -0.1261     -0.0020
         3         0.0758      0.1690     -0.0085     -0.2859      0.0115     -0.0264
 <0|del|b> * <b|rxdel|0> + <0|del|b> * <b|delr+rdel|0>
 Rotatory Strengths (R) in cgs (10**-40 erg-esu-cm/Gauss)
       state          XX          YY          ZZ    R(velocity)    E-M Angle
         1       -11.2424    -14.7492    -27.5788    -17.8568       94.58
         2        20.8054     32.7967     43.6969     32.4330       86.87
         3         4.0782    -41.0350    -15.3455    -17.4341       98.26
 1/2[<0|r|b>*<b|rxdel|0> + (<0|rxdel|b>*<b|r|0>)*]
 Rotatory Strengths (R) in cgs (10**-40 erg-esu-cm/Gauss)
       state          XX          YY          ZZ     R(length)
         1       -39.8291    -30.8698     22.9357    -15.9211
         2        75.0900     27.0664     -1.2369     33.6398
         3       -63.8187     24.1492    -14.4778    -18.0491
  1/2[<0|del|b>*<b|r|0> + (<0|r|b>*<b|del|0>)*] (Au)
       state          X           Y           Z        Dip. S.   Osc.(frdel)
         1        -0.0508     -0.0043     -0.0000      0.0552      0.0368
         2        -0.5575     -0.0041     -0.0000      0.5615      0.3744
         3        -0.0511     -0.0291     -0.0001      0.0803      0.0535

 Excitation energies and oscillator strengths:
 
 Excited State   1:      Singlet-A      2.2790 eV  544.03 nm  f=0.0371  <S**2>=0.000
      48 -> 50         0.33333
      49 -> 50         0.62302
 This state for optimization and/or second-order correction.
 Total Energy, E(TD-HF/TD-DFT) =  -681.427823720    
 Copying the excited state density for this state as the 1-particle RhoCI density.
 
 Excited State   2:      Singlet-A      3.1617 eV  392.14 nm  f=0.3834  <S**2>=0.000
      48 -> 50         0.62045
      49 -> 50        -0.33466
 
 Excited State   3:      Singlet-A      3.8847 eV  319.16 nm  f=0.0535  <S**2>=0.000
      47 -> 50         0.69751
 SavETr:  write IOETrn=   770 NScale= 10 NData=  16 NLR=1 NState=    3 LETran=      64.
          IDoAtm=111111111111111111111
          Differentiating once with respect to electric field.
                with respect to dipole field.
          Differentiating once with respect to nuclear coordinates.
 Keep R1 ints in memory in canonical form, NReq=739550835.
          There are     1 degrees of freedom in the 1st order CPHF.  IDoFFX=0 NUNeed=     1.
 LinEq1:  Iter=  0 NonCon=     1 RMS=2.83D-02 Max=2.52D+00 NDo=     1
 AX will form     1 AO Fock derivatives at one time.
 LinEq1:  Iter=  1 NonCon=     1 RMS=1.09D-02 Max=7.79D-01 NDo=     1
 LinEq1:  Iter=  2 NonCon=     1 RMS=7.83D-03 Max=2.61D-01 NDo=     1
 LinEq1:  Iter=  3 NonCon=     1 RMS=5.28D-03 Max=2.84D-01 NDo=     1
 LinEq1:  Iter=  4 NonCon=     1 RMS=3.70D-03 Max=1.66D-01 NDo=     1
 LinEq1:  Iter=  5 NonCon=     1 RMS=1.53D-03 Max=4.60D-02 NDo=     1
 LinEq1:  Iter=  6 NonCon=     1 RMS=1.45D-03 Max=5.92D-02 NDo=     1
 LinEq1:  Iter=  7 NonCon=     1 RMS=8.49D-04 Max=2.87D-02 NDo=     1
 LinEq1:  Iter=  8 NonCon=     1 RMS=5.04D-04 Max=1.22D-02 NDo=     1
 LinEq1:  Iter=  9 NonCon=     1 RMS=3.95D-04 Max=2.06D-02 NDo=     1
[...]
 ,0.00030216,-0.00915844,0.00177275,0.00153960,-0.00048152,0.00011356,-
 0.00050000,0.00434934,-0.00046780,-0.00488733,0.00093265,-0.00030232,0
 .04464358,0.80688955,0.00193852,-0.00074265,0.00012115,0.00004713,0.00
 222926,0.00373755,0.00319576,-0.00199646,-0.00125688,0.04246339,0.0190
 8933,-0.06634972,0.01008231,0.01442102,0.00476353,-0.00210149,0.001584
 70,0.00017604,-0.00227849,0.00107596,-0.00066808,0.00111769,-0.0020746
 5,-0.00023791,0.00070624,-0.00120499,-0.00230762,-0.06942680,-0.105368
 49,0.14359247,-0.00405704,-0.00115092,0.00005167,-0.00231160,0.0003269
 8,0.00060019,0.00462162,-0.00839631,0.00013213,-0.07799972,0.01661823,
 0.00873537,-0.05330940,-0.01288590,0.00984367,0.00061323,0.00551907,-0
 .00096052,0.00286275,0.00004169,0.00023887,-0.00054579,0.00205584,-0.0
 0043985,-0.00123479,-0.00082138,-0.00041051,-0.18537361,0.11303006,-0.
 00254634,0.82711704,-0.02159224,-0.01339758,-0.00045573,-0.01295479,0.
 01853186,-0.00481787,-0.01191189,0.00404549,0.00138911,0.04884647,0.00
 643504,-0.00190470,-0.06748284,0.00019057,0.00625155,0.02644077,0.0027
 7370,-0.00030879,0.01347291,-0.00451362,0.00235667,-0.00339292,-0.0052
 8421,0.00031589,0.01805813,0.00793510,0.00121257,0.08126259,-0.2193210
 7,0.01400148,0.00899909,0.53708889,0.00365521,0.00107668,0.00007314,0.
 00225435,-0.00117106,0.00097902,0.00090598,0.00057638,0.00193024,0.004
 91638,-0.00058754,0.01272345,0.01698073,0.00349923,0.00575330,-0.00436
 779,-0.00114287,0.00121959,-0.00267764,0.00083204,-0.00026498,0.000643
 18,-0.00074788,0.00019381,-0.00096756,-0.00075143,-0.00082045,0.001689
 18,0.01098702,-0.06113782,-0.09182873,-0.06862698,0.13423559,0.0319945
 1,0.00451422,0.00219535,0.01259173,-0.00802403,0.00249858,0.00275500,-
 0.00364706,-0.00045319,-0.02346062,0.03151286,-0.00157604,-0.19277406,
 0.07465316,0.00463838,-0.07590014,-0.00735013,0.00587283,-0.02278984,0
 .00681492,-0.00361305,0.00350544,-0.00671415,0.00117654,-0.00760029,-0
 .00531713,-0.00058125,0.03269506,-0.01951111,-0.00000602,-0.18802195,-
 0.07745837,0.03071594,0.52372207,0.00154748,-0.00196654,0.00210749,0.0
 0327088,0.00077994,-0.00012392,-0.00764201,-0.00285672,0.00268353,0.01
 899000,-0.04717542,0.00592609,0.06241492,-0.12101896,0.00218912,-0.021
 10604,0.01792665,-0.00143014,-0.00610924,0.00271660,-0.00104471,0.0010
 2478,-0.00403584,0.00032208,0.00111131,-0.00107648,0.00010346,0.027502
 06,-0.07490126,0.01022312,-0.11965506,-0.25546361,0.04683249,-0.058052
 80,0.80241395,-0.00310512,0.00155219,0.00697674,-0.00143249,0.00010575
 ,-0.00073737,0.00106431,0.00073903,-0.00000003,0.00132017,0.00373705,0
 .00921105,0.00798857,0.00125851,-0.06644046,0.00799304,-0.00215790,0.0
 0645209,0.00312872,-0.00139695,-0.00014768,-0.00026501,0.00148503,-0.0
 0122391,-0.00006358,0.00066264,0.00042017,-0.00668981,0.01582993,0.010
 89336,0.03682263,0.04169911,-0.06400873,-0.04243484,-0.09547069,0.1252
 0455,0.00047232,0.00851709,0.00015758,0.00309278,-0.02756497,-0.017563
 42,-0.04350016,0.00011345,-0.00174190,-0.00944053,0.01758576,0.0205525
 1,-0.00258640,-0.00309335,0.00283329,0.00190854,0.00137933,-0.00033840
 ,-0.00032251,0.00054912,0.00050507,0.00204677,0.00868041,-0.00012045,-
 0.01218936,-0.00530055,0.00021007,0.00907764,-0.00027513,0.00079927,-0
 .00100740,0.00303285,-0.00036795,-0.00083634,0.00138521,-0.00040351,0.
 04256614,0.00036805,0.00846948,-0.00006575,-0.01018101,-0.01997320,-0.
 02264239,0.00423777,-0.07568680,-0.06971284,0.01660471,-0.01065034,-0.
 02159104,0.00024926,0.00376776,-0.00144880,0.00146302,-0.00075755,0.00
 088080,-0.00041891,0.00063945,0.00024321,-0.00095658,0.00504181,0.0001
 4956,-0.00702535,-0.00503273,0.00040217,-0.00356663,-0.00297791,-0.000
 40034,0.00167846,-0.00128452,0.00062911,0.00135206,0.00057884,-0.00018
 403,-0.00398535,0.08816951,-0.00196364,0.00607773,-0.00191561,-0.01316
 573,-0.02720378,-0.01622326,0.00755962,-0.05597103,-0.19679857,0.01510
 328,-0.01900266,-0.01228844,0.00211463,0.00331307,-0.00217964,0.001067
 19,-0.00154355,0.00061194,-0.00019355,-0.00117102,0.00022096,-0.000988
 01,0.00345178,-0.00020620,-0.00350037,-0.00304169,0.00051690,-0.004000
 42,-0.00172090,0.00072984,0.00136754,-0.00158421,0.00046980,0.00144947
 ,-0.00071515,0.00003388,-0.00429682,0.09286092,0.28216938,-0.00141504,
 0.00524664,-0.00085589,0.00265934,-0.03102130,0.01348387,-0.04928607,0
 .00380001,-0.00143618,-0.00364820,0.02506315,-0.01130518,-0.00430491,-
 0.00217653,-0.00022359,0.00032390,0.00110610,-0.00055902,-0.00002303,-
 0.00139837,-0.00030767,0.00215183,0.00550131,-0.00054633,-0.00807214,-
 0.00195973,-0.00020713,0.00539663,-0.00152078,-0.00034599,0.00002725,0
 .00200126,-0.00043898,-0.00068902,0.00254228,-0.00013306,0.01048699,0.
 00005689,-0.00059359,0.04517209,-0.00333801,0.00802455,-0.00108556,-0.
 00849561,-0.03765087,0.01960576,0.00682620,-0.14969947,0.09599081,0.01
 398435,-0.03116945,0.01624952,0.00435995,0.00448358,0.00118675,0.00149
 721,-0.00100868,0.00035290,-0.00020502,-0.00084714,-0.00042712,-0.0001
 6527,0.00464040,-0.00121165,-0.00499443,-0.00433971,-0.00098611,-0.005
 02622,-0.00244439,0.00067832,0.00140013,-0.00124425,-0.00019293,0.0012
 6373,-0.00100770,-0.00008216,-0.00020037,0.01026035,0.00685203,-0.0067
 4884,0.20248704,0.00173807,-0.00279441,-0.00023914,0.00357909,0.015043
 67,-0.00039558,-0.00560018,0.08895499,-0.13111255,-0.00433610,0.012046
 65,0.00269759,-0.00184999,-0.00149202,0.00062322,-0.00006678,0.0001216
 1,-0.00014350,0.00067961,0.00032548,-0.00012888,0.00034417,-0.00049389
 ,0.00025951,0.00021876,0.00161341,-0.00019236,0.00183088,0.00097940,-0
 .00022534,-0.00066095,0.00015406,0.00034693,-0.00015951,0.00059811,-0.
 00006868,0.00126201,0.02242363,-0.05397463,0.00300004,-0.13723584,0.18
 403140,0.00654676,0.02684300,-0.00333998,-0.00368280,0.00119324,-0.000
 61356,-0.00207439,-0.00019864,0.00002919,-0.00471386,-0.00194435,0.000
 83776,0.00756225,-0.02669251,0.00355171,-0.05871972,0.00113956,-0.0001
 8249,0.00043209,-0.00029475,0.00014338,0.00020554,0.00064511,-0.000025
 19,-0.00109321,0.00086488,-0.00022557,0.00069849,-0.00159553,0.0001260
 5,-0.00000414,0.00021819,-0.00006811,0.00062304,0.00031325,-0.00020570
 ,0.00034070,0.00005944,0.00004282,0.00039762,0.00002630,-0.00001480,0.
 05526060,-0.00228414,-0.00929071,0.00093773,0.00098697,0.00139029,-0.0
 0006400,0.00036996,0.00057747,0.00011030,-0.00278633,0.00133794,0.0010
 7392,0.00192203,-0.01135446,0.00158831,0.00077315,-0.34194034,0.049894
 45,-0.00071940,0.00038941,-0.00014889,0.00005111,-0.00108812,0.0000698
 4,0.00094206,0.00016312,0.00020602,0.00114668,-0.00056068,-0.00002444,
 -0.00034447,0.00025898,0.00004489,0.00075894,0.00048768,-0.00073450,-0
 .00007785,-0.00008868,-0.00014183,-0.00004947,-0.00015203,0.00008053,-
 0.00053362,0.35955824,0.00126573,0.00212184,-0.00102241,0.00055293,-0.
 00073478,0.00002562,-0.00002689,-0.00000715,-0.00024846,0.00078285,0.0
 0115898,0.00646901,-0.00074048,0.00249450,0.00010783,0.00005452,0.0486
 7234,-0.02463056,-0.00019433,0.00000126,-0.00010032,0.00010646,0.00034
 135,-0.00051762,-0.00088031,-0.00012530,0.00085557,-0.00034886,0.00012
 418,0.00056896,0.00012178,-0.00018946,0.00017061,-0.00057148,-0.000584
 20,-0.00366304,0.00000997,-0.00003711,-0.00002858,0.00000914,-0.000071
 31,-0.00003030,-0.00004053,-0.05316705,0.02126719,-0.00064569,0.000911
 06,-0.00002189,-0.00221787,-0.00172678,-0.00105411,0.00031690,0.000977
 54,0.00030646,-0.00025307,0.00005730,0.00008653,-0.00002471,-0.0000022
 6,-0.00006021,-0.00024858,-0.00041669,-0.00001776,-0.00464824,-0.00436
 081,-0.00025856,-0.35436181,-0.00588273,-0.03453376,-0.00553468,0.0060
 0805,-0.00208091,-0.00013057,0.00012786,-0.00011147,-0.00005777,-0.000
 11489,0.00000903,0.00001235,-0.00005431,-0.00001671,0.00008059,-0.0000
 8788,-0.00017149,0.00000846,-0.00018550,0.00011227,-0.00001370,0.00002
 715,0.00002075,0.36787515,0.00294407,-0.00632323,0.00106073,-0.0066413
 9,-0.00348843,0.00025360,0.00107146,0.00135290,-0.00026958,-0.00081887
 ,-0.00040589,-0.00003643,0.00077254,-0.00031601,0.00012716,0.00016838,
 0.00142198,0.00004622,0.02096686,0.00789521,0.00145009,-0.00330423,-0.
 05910648,0.00423847,-0.01932328,0.01066708,-0.00246744,0.00054912,0.00
 006580,0.00003738,-0.00000669,0.00044954,-0.00003802,-0.00039253,0.000
 04820,0.00002497,-0.00025651,-0.00026077,-0.00020230,-0.00002708,-0.00
 007829,0.00012319,-0.00008539,0.00000814,-0.00003623,0.00454956,0.0479
 6409,0.00069118,0.00187822,-0.00039447,0.00126000,-0.00009247,0.007303
 42,0.00039751,-0.00051752,-0.00157544,0.00019645,-0.00016185,-0.000662
 77,-0.00003464,0.00045373,0.00027078,-0.00030902,-0.00034614,0.0004132
 4,-0.00402678,-0.00083788,0.00180693,-0.03480694,0.00484834,-0.0324074
 1,-0.00098746,-0.00077713,0.00617224,0.00014791,-0.00009378,0.00062629
 ,0.00009383,0.00011828,0.00006252,-0.00002396,-0.00001072,0.00017981,-
 0.00053939,-0.00028247,-0.00003558,0.00009181,0.00022504,0.00011725,0.
 00000349,-0.00001829,-0.00012691,0.03750293,-0.00388097,0.02143999,-0.
 00011069,0.00015960,-0.00010670,-0.00014130,-0.00036852,0.00002545,0.0
 0067962,-0.00098970,-0.00003875,-0.00118590,0.00199387,0.00074835,-0.0
 0089494,-0.00124532,0.00099612,-0.00004329,0.00030302,0.00005159,0.000
 11599,0.00001614,0.00004897,-0.00007380,0.00039816,-0.00003064,-0.0004
 6040,-0.00013311,0.00001805,-0.00802182,-0.00584865,0.00175626,-0.3456
 0979,-0.00656208,0.04150091,-0.00656513,0.00368698,0.00045912,-0.00014
 148,0.00019439,0.00020487,-0.00008071,0.00021548,-0.00013456,-0.000007
 38,-0.00001409,0.00001377,-0.00000727,0.00000013,-0.00002792,0.3624260
 7,-0.00062679,-0.00069635,-0.00005898,0.00023779,0.00015617,-0.0002413
 3,-0.00037690,0.00121049,0.00021510,0.00480484,-0.00425050,0.00052560,
 -0.00304256,-0.00524321,0.00218979,-0.00051778,0.00121359,-0.00007994,
 0.00014584,0.00003292,0.00007024,-0.00009914,-0.00017735,0.00006207,0.
 00039115,0.00033088,0.00010974,0.02200146,0.00900000,-0.00439343,-0.00
 830369,-0.05878787,0.00629056,-0.02311208,0.00787149,0.00199733,0.0000
 5242,-0.00011438,-0.00015842,0.00001510,-0.00013610,0.00009172,0.00005
 250,0.00001766,0.00003034,0.00000440,0.00002604,-0.00004656,0.00818309
 ,0.04919776,-0.00007262,0.00031673,-0.00086241,-0.00010997,-0.00067837
 ,-0.00043487,0.00076401,-0.00019722,0.00107392,-0.00031901,0.00146527,
 0.00467824,0.00087688,0.00191265,0.00586484,0.00092004,-0.00016581,0.0
 0050208,0.00038612,-0.00016154,0.00031441,-0.00015839,0.00067119,0.000
 15181,-0.00054694,-0.00000476,0.00029410,-0.00282474,-0.00071430,-0.00
 092183,0.04181669,0.00536702,-0.03509524,0.00510311,-0.00137295,0.0008
 0912,-0.00038747,0.00020971,0.00002817,-0.00002037,-0.00010125,-0.0000
 7725,-0.00000784,0.00002909,0.00016427,0.00002834,-0.00002990,-0.00018
 109,-0.04484994,-0.00575951,0.02847824,-0.00001981,-0.00002614,-0.0001
 0463,0.00029981,-0.00029418,0.00010400,0.00146216,-0.00007799,-0.00033
 535,-0.00540415,0.00378782,0.00072532,0.00108520,0.02444792,-0.0035286
 5,0.00095769,0.00006435,-0.00016793,-0.00008637,0.00008127,-0.00003261
 ,0.00006510,0.00017307,-0.00001883,-0.00033329,-0.00025140,-0.00001676
 ,-0.00349986,-0.00400247,0.00173202,0.01234824,-0.01625072,0.00078470,
 -0.08603026,0.08528015,-0.00421205,-0.00020477,0.00012172,0.00027595,-
 0.00033008,0.00045591,-0.00025096,-0.00038922,-0.00052174,0.00013961,-
 0.00000486,-0.00000724,0.00000687,0.00016591,0.00102808,-0.00054648,0.
 07896331,0.00056002,0.00008795,-0.00001902,0.00002708,-0.00000495,-0.0
 0004071,-0.00043167,0.00027449,0.00039431,-0.00028412,-0.00020730,0.00
 037620,-0.00182435,-0.00051650,-0.00002216,-0.00053699,-0.00021794,-0.
 00013794,-0.00017317,0.00000249,-0.00002657,-0.00000729,-0.00010876,0.
 00001812,0.00005286,0.00005725,0.00002363,-0.00165440,-0.00285559,0.00
 128894,0.01064449,-0.01067817,0.00012084,0.08626473,-0.32155185,0.0305
 6314,0.00001148,-0.00005262,-0.00011654,0.00019652,-0.00014972,0.00001
 620,0.00030004,0.00009105,0.00002166,0.00000824,-0.00000791,-0.0000000
 2,-0.00045451,0.00036745,-0.00041229,-0.09346012,0.33578498,-0.0002031
 1,-0.00023893,-0.00028848,-0.00011273,0.00029313,-0.00016538,0.0002364
 6,0.00026968,0.00132794,0.00070369,-0.00017354,0.00296995,0.00007133,-
 0.00316850,-0.00120170,-0.00006086,-0.00005842,-0.00129921,0.00010258,
 0.00000061,-0.00003469,-0.00002526,-0.00009341,-0.00000487,0.00018052,
 0.00005281,0.00006881,0.00182540,0.00145898,0.00422062,-0.00309396,0.0
 0473133,0.00097341,-0.00444089,0.02956395,-0.02706527,-0.00030884,0.00
 009841,0.00009186,0.00024989,-0.00033667,-0.00012850,0.00002854,0.0001
 1263,0.00036857,-0.00000440,0.00000730,0.00002591,-0.00030270,-0.00066
 116,-0.00288011,0.00536381,-0.03219130,0.02216647,-0.00569363,-0.00144
 170,-0.00095903,-0.00544227,0.03357492,-0.00416302,-0.00001717,0.00307
 833,-0.00093231,0.00029859,-0.00055605,0.00012562,0.00041668,0.0003778
 7,-0.00002389,0.00049494,0.00155414,-0.00033262,-0.00264766,-0.0034668
 2,-0.00029801,0.01088460,-0.01716423,0.00343004,-0.06479939,0.04574025
 ,-0.01151445,-0.00005479,-0.00007155,0.00003308,0.00000544,0.00004925,
 0.00001223,-0.00004433,-0.00005901,0.00000442,0.00011188,-0.00056859,0
 .00016811,0.00079560,-0.00126042,0.00059128,-0.00046790,0.00015494,-0.
 00009717,-0.00003005,0.00075038,0.00022808,-0.00000315,-0.00000654,-0.
 00000477,0.00001357,-0.00001008,-0.00000386,0.06519024,-0.00016579,0.0
 0262150,-0.00010327,0.00163457,-0.00412765,0.00041026,0.00003267,-0.00
 048409,0.00000167,-0.00000108,-0.00017546,0.00002899,-0.00042263,0.000
 06771,-0.00003433,0.00062756,-0.00014569,0.00023661,-0.00225471,-0.000
 94938,0.00041422,0.00710595,-0.00824380,0.00186413,0.05386910,-0.34764
 321,0.04655366,0.00016215,-0.00008398,0.00005519,-0.00002498,-0.000038
 92,0.00002769,0.00024407,0.00010430,-0.00004768,-0.00012455,-0.0000092
 6,0.00006717,-0.00084084,-0.00005546,-0.00028917,0.00004571,0.00005615
 ,0.00004842,-0.00034140,0.00001626,-0.00046310,-0.00000433,-0.00000171
 ,-0.00001158,0.00000202,0.00000238,0.00000362,-0.06002512,0.35927856,-
 0.00138920,-0.00087401,0.00265538,-0.00034330,0.00500158,-0.00401176,-
 0.00027058,0.00039421,0.00062108,0.00019566,-0.00006005,-0.00017970,0.
 00024967,-0.00001756,-0.00042198,-0.00029102,0.00039629,0.00110804,0.0
 0007852,0.00009916,0.00447311,0.00035909,-0.00038468,0.00078532,-0.012
 56380,0.04491819,-0.03040269,-0.00001159,-0.00003354,0.00009980,0.0000
 1863,0.00006857,-0.00002151,-0.00014965,-0.00000265,-0.00000052,0.0004
 3397,-0.00055033,-0.00066749,-0.00019898,0.00020500,-0.00082647,-0.000
 07393,0.00008261,0.00043341,0.00037125,-0.00032621,-0.00298021,0.00000
 210,0.00000187,0.00000990,0.00000301,0.00000078,0.00002511,0.01375660,
 -0.04908774,0.02774845,0.00300178,-0.02504760,0.00247512,-0.00729428,-
 0.00368976,-0.00176304,0.00183059,0.00021382,0.00061561,-0.00022095,0.
 00013161,-0.00003983,0.00000650,-0.00000846,0.00010957,0.00111633,0.00
 005716,0.00054351,-0.08886153,-0.08842145,0.00244853,0.01131878,0.0149
 8773,-0.00021294,-0.00200850,0.00487904,-0.00085115,0.00024249,0.00007
 719,-0.00005969,-0.00003591,0.00019609,-0.00002216,-0.00018654,-0.0000
 5867,-0.00000738,-0.00013622,-0.00008171,-0.00030040,-0.00034334,-0.00
 050230,0.00024080,-0.00042756,0.00042347,-0.00013841,-0.00010799,-0.00
 092533,0.00013301,0.00000421,0.00001129,0.00000878,-0.00001801,0.00000
 367,-0.00000096,0.00104165,0.00047159,-0.00018235,0.08106282,0.0015802
 7,-0.00256301,0.00116539,-0.00113450,0.00006401,0.00077102,0.00162852,
 0.00036968,-0.00004606,-0.00053906,-0.00028147,0.00005971,0.00008773,0
 .00023706,-0.00006698,0.00002423,0.00017985,-0.00040497,-0.08992225,-0
 .32368130,0.02191811,-0.00937096,-0.00792580,-0.00025478,0.00127823,-0
 .00222193,0.00038192,0.00063990,-0.00004750,-0.00001777,-0.00007300,0.
 00046294,-0.00003745,-0.00029861,-0.00003797,0.00006359,-0.00039459,-0
 .00020826,-0.00020810,-0.00035631,-0.00017661,0.00009630,-0.00029595,0
 .00012434,0.00000043,0.00050506,0.00008080,0.00000064,-0.00001156,0.00
 000750,-0.00001397,-0.00001226,0.00000460,0.00000275,-0.00064006,-0.00
 018680,0.00016311,0.09728482,0.33581579,-0.00110206,-0.00203714,0.0065
 5181,-0.00119531,0.00071131,0.00804969,-0.00019455,-0.00010500,-0.0018
 8536,0.00036282,0.00003906,-0.00003514,-0.00011591,0.00002962,-0.00025
 366,0.00039949,-0.00036242,-0.00367926,0.00285063,0.02174880,-0.032607
 73,0.00244881,0.00287123,0.00027706,-0.00031480,0.00060981,-0.00041847
 ,-0.00028362,-0.00001672,0.00022166,0.00007196,-0.00028193,0.00005607,
 0.00030454,0.00013040,0.00017160,-0.00036900,-0.00038910,0.00005492,0.
 00030274,0.00025324,0.00011496,-0.00003895,0.00011841,0.00038529,-0.00
 011121,-0.00007393,-0.00003110,-0.00000797,-0.00001959,-0.00008211,0.0
 0000903,0.00000099,0.00001847,-0.00001290,0.00032696,0.00153516,-0.002
 99344,-0.02356901,0.02155051,0.00005237,-0.00050828,0.00008887,-0.0002
 4504,0.00083838,-0.00030604,-0.00028707,-0.00284070,0.00086772,-0.0030
 9084,-0.03273652,0.00496701,-0.00569143,0.00061336,0.00117177,0.000483
 50,-0.00176502,0.00040303,0.00003697,0.00000612,0.00001394,-0.00014895
 ,-0.00049839,0.00003748,0.00075052,0.00030839,0.00005668,-0.07203600,-
 0.04981340,0.01287858,0.01197336,0.01514314,-0.00332890,-0.00300069,0.
 00366786,0.00018829,0.00018083,0.00048624,-0.00017945,0.00077282,0.001
 09273,-0.00052315,-0.00047320,-0.00022535,-0.00003905,-0.00000658,0.00
 001604,0.00000305,-0.00004478,-0.00084249,-0.00005544,0.00095969,0.000
 76758,-0.00020465,-0.00005287,0.00001006,0.00000590,0.00001567,0.00002
 037,-0.00001034,0.06985173,0.00026013,0.00035109,0.00001105,0.00031989
 ,-0.00044731,0.00017339,0.00052462,-0.00098476,-0.00013568,-0.00179167
 ,-0.00249093,0.00065820,-0.00019273,0.00118508,0.00055531,0.00017534,-
 0.00010998,0.00012973,-0.00006428,0.00009168,-0.00003339,0.00011246,0.
 00041371,-0.00004982,-0.00073815,-0.00028773,-0.00006726,-0.05911664,-
 0.33628135,0.05153853,-0.00865164,-0.00815829,0.00237924,0.00249931,-0
 .00183532,0.00035563,-0.00003391,0.00016979,0.00015847,0.00056998,0.00
 026396,-0.00036364,-0.00006047,0.00001454,-0.00006270,-0.00000298,-0.0
 0000900,0.00000465,0.00048100,-0.00002448,-0.00034822,-0.00053803,-0.0
 0032132,0.00032674,-0.00000991,-0.00000145,0.00000539,-0.00000219,-0.0
 0001590,0.00001499,0.06625987,0.34847799,0.00014329,0.00046218,0.00017
 105,0.00003536,-0.00058904,-0.00015369,0.00020106,0.00041373,-0.000329
 49,-0.00053117,0.00429748,-0.00065632,0.00147586,0.00033903,0.00462841
 ,0.00011743,0.00040659,0.00088814,-0.00004154,-0.00002338,-0.00004187,
 0.00000998,0.00033076,-0.00004491,-0.00049596,-0.00011062,0.00017657,0
 .01552054,0.04969381,-0.03664607,0.00002588,0.00050403,0.00216124,0.00
 005516,0.00007528,0.00300333,-0.00032659,-0.00059332,-0.00060965,0.000
 03447,0.00013124,-0.00064769,0.00007370,-0.00004976,-0.00044810,0.0000
 0492,-0.00000810,-0.00002341,-0.00032638,-0.00016544,-0.00183422,0.000
 06994,0.00014173,0.00081110,-0.00000743,-0.00000172,0.00001756,-0.0000
 0319,-0.00000389,0.00000563,-0.01603531,-0.05525061,0.02957240\\-0.000
 01208,0.00001650,-0.00001166,0.00000463,-0.00001887,0.00001256,0.00000
 726,0.00000711,-0.00000907,0.00000081,0.00001335,-0.00001191,0.0000035
 6,0.00000032,0.00000320,0.00000200,-0.00000488,0.00000266,0.00001366,-
 0.00000979,0.00000371,0.00000597,0.00001373,-0.00000611,-0.00001946,0.
 00000581,0.00000122,-0.00000444,-0.00001378,0.00001265,0.00000777,0.00
 001798,-0.00000138,-0.00000869,-0.00001319,-0.00000205,-0.00000136,-0.
 00000623,0.00000658,-0.00000127,-0.00000834,0.00001383,0.00000037,-0.0
 0000120,-0.00000793,-0.00000052,-0.00000382,0.00000044,-0.00000029,0.0
 0000270,-0.00000198,-0.00000124,0.,-0.00000453,0.00000262,0.00000028,0
 .00000273,-0.00000268,0.00000034,-0.00000580,0.00000337,0.00000200,0.0
 0000285\\\@


 IF YOU'RE NOT PART OF THE SOLUTION,
 THEN YOU'RE PART OF THE PRECIPITATE.
 Job cpu time:       0 days  1 hours 25 minutes 51.1 seconds.
 Elapsed time:       0 days  0 hours  2 minutes 58.3 seconds.
 File lengths (MBytes):  RWF=    613 Int=      0 D2E=      0 Chk=     16 Scr=      1
 Normal termination of Gaussian 16 at Thu May 20 10:15:41 2021.
