 Default is to use a total of   4 processors:
                                4 via shared-memory
                                1 via Linda
 Entering Link 1 = D:\study\G16W\l1.exe PID=      8076.
  
 Copyright (c) 1988,1990,1992,1993,1995,1998,2003,2009,2016,
            Gaussian, Inc.  All Rights Reserved.
  
 This is part of the Gaussian(R) 16 program.  It is based on
 the Gaussian(R) 09 system (copyright 2009, Gaussian, Inc.),
 the Gaussian(R) 03 system (copyright 2003, Gaussian, Inc.),
 the Gaussian(R) 98 system (copyright 1998, Gaussian, Inc.),
 the Gaussian(R) 94 system (copyright 1995, Gaussian, Inc.),
 the Gaussian 92(TM) system (copyright 1992, Gaussian, Inc.),
 the Gaussian 90(TM) system (copyright 1990, Gaussian, Inc.),
 the Gaussian 88(TM) system (copyright 1988, Gaussian, Inc.),
 the Gaussian 86(TM) system (copyright 1986, Carnegie Mellon
 University), and the Gaussian 82(TM) system (copyright 1983,
 Carnegie Mellon University). Gaussian is a federally registered
 trademark of Gaussian, Inc.
  
 This software contains proprietary and confidential information,
 including trade secrets, belonging to Gaussian, Inc.
  
 This software is provided under written license and may be
 used, copied, transmitted, or stored only in accord with that
 written license.
  
 The following legend is applicable only to US Government
 contracts under FAR:
  
                    RESTRICTED RIGHTS LEGEND
  
 Use, reproduction and disclosure by the US Government is
 subject to restrictions as set forth in subparagraphs (a)
 and (c) of the Commercial Computer Software - Restricted
 Rights clause in FAR 52.227-19.
  
 Gaussian, Inc.
 340 Quinnipiac St., Bldg. 40, Wallingford CT 06492
  
  
 ---------------------------------------------------------------
 Warning -- This program may not be used in any manner that
 competes with the business of Gaussian, Inc. or will provide
 assistance to any competitor of Gaussian, Inc.  The licensee
 of this program is prohibited from giving any competitor of
 Gaussian, Inc. access to this program.  By using this program,
 the user acknowledges that Gaussian, Inc. is engaged in the
 business of creating and licensing software in the field of
 computational chemistry and represents and warrants to the
 licensee that it is not a competitor of Gaussian, Inc. and that
 it will not use this program in any manner prohibited above.
 ---------------------------------------------------------------
  

 Cite this work as:
 Gaussian 16, Revision A.03,
 M. J. Frisch, G. W. Trucks, H. B. Schlegel, G. E. Scuseria, 
 M. A. Robb, J. R. Cheeseman, G. Scalmani, V. Barone, 
 G. A. Petersson, H. Nakatsuji, X. Li, M. Caricato, A. V. Marenich, 
 J. Bloino, B. G. Janesko, R. Gomperts, B. Mennucci, H. P. Hratchian, 
 J. V. Ortiz, A. F. Izmaylov, J. L. Sonnenberg, D. Williams-Young, 
 F. Ding, F. Lipparini, F. Egidi, J. Goings, B. Peng, A. Petrone, 
 T. Henderson, D. Ranasinghe, V. G. Zakrzewski, J. Gao, N. Rega, 
 G. Zheng, W. Liang, M. Hada, M. Ehara, K. Toyota, R. Fukuda, 
 J. Hasegawa, M. Ishida, T. Nakajima, Y. Honda, O. Kitao, H. Nakai, 
 T. Vreven, K. Throssell, J. A. Montgomery, Jr., J. E. Peralta, 
 F. Ogliaro, M. J. Bearpark, J. J. Heyd, E. N. Brothers, K. N. Kudin, 
 V. N. Staroverov, T. A. Keith, R. Kobayashi, J. Normand, 
 K. Raghavachari, A. P. Rendell, J. C. Burant, S. S. Iyengar, 
 J. Tomasi, M. Cossi, J. M. Millam, M. Klene, C. Adamo, R. Cammi, 
 J. W. Ochterski, R. L. Martin, K. Morokuma, O. Farkas, 
 J. B. Foresman, and D. J. Fox, Gaussian, Inc., Wallingford CT, 2016.
 
 ******************************************
 Gaussian 16:  EM64W-G16RevA.03 17-Dec-2016
                31-Oct-2020 
 ******************************************
 ---------------------------------
 #P CAM-B3LYP/6-31g(d) pop=nboread
 ---------------------------------
 1/38=1,172=1/1;
 2/12=2,17=6,18=5,40=1/2;
 3/5=1,6=6,7=1,11=2,25=1,30=1,74=-40/1,2,3;
 4//1;
 5/5=2,38=5/2;
 6/7=2,8=2,9=2,10=2,28=1,40=2/1,7;
 99/5=1,9=1/99;
 Leave Link    1 at Sat Oct 31 23:01:21 2020, MaxMem=           0 cpu:               0.0 elap:               0.2
 (Enter D:\study\G16W\l101.exe)
 --------------------
 b3lyp/6-31g(d) opted
 --------------------
 Symbolic Z-matrix:
 Charge =  0 Multiplicity = 1
 C                     3.55864  -1.13875   0.39984 
 C                     2.17032  -1.13392   0.3936 
 C                     1.43742  -0.00117  -0.00471 
 C                     2.17111   1.1311   -0.40299 
 C                     3.5594    1.13559  -0.40728 
 C                     4.28212  -0.0018   -0.00352 
 H                     4.09455  -2.02784   0.72434 
 H                     1.6438   -2.01928   0.73875 
 H                     1.64529   2.01808  -0.74504 
 H                     4.09616   2.02124  -0.7396 
 C                    -0.04054  -0.00033  -0.0031 
 C                    -0.76774   1.17024   0.29409 
 C                    -0.76927  -1.17039  -0.29852 
 C                    -2.15663   1.1801    0.29521 
 H                    -0.23466   2.07883   0.55581 
 C                    -2.15819  -1.17938  -0.2956 
 H                    -0.23738  -2.07901  -0.56248 
 C                    -2.83999   0.00052   0.00096 
 H                    -2.7173    2.07617   0.5315 
 H                    -2.72003  -2.07508  -0.53053 
 N                    -4.30454   0.00092   0.00355 
 O                    -4.87879   1.06025   0.26347 
 O                    -4.88031  -1.05803  -0.25445 
 N                     5.67158  -0.02063  -0.05641 
 H                     6.12612  -0.70583   0.53328 
 H                     6.12706   0.88202  -0.01587 
 
 ITRead=  0  0  0  0  0  0  0  0  0  0  0  0  0  0  0  0  0  0  0  0
 ITRead=  0  0  0  0  0  0
 MicOpt= -1 -1 -1 -1 -1 -1 -1 -1 -1 -1 -1 -1 -1 -1 -1 -1 -1 -1 -1 -1
 MicOpt= -1 -1 -1 -1 -1 -1
 NAtoms=     26 NQM=       26 NQMF=       0 NMMI=      0 NMMIF=      0
                NMic=       0 NMicF=      0.
                    Isotopes and Nuclear Properties:
 (Nuclear quadrupole moments (NQMom) in fm**2, nuclear magnetic moments (NMagM)
  in nuclear magnetons)

  Atom         1           2           3           4           5           6           7           8           9          10
 IAtWgt=          12          12          12          12          12          12           1           1           1           1
 AtmWgt=  12.0000000  12.0000000  12.0000000  12.0000000  12.0000000  12.0000000   1.0078250   1.0078250   1.0078250   1.0078250
 NucSpn=           0           0           0           0           0           0           1           1           1           1
 AtZEff=   0.0000000   0.0000000   0.0000000   0.0000000   0.0000000   0.0000000   0.0000000   0.0000000   0.0000000   0.0000000
 NQMom=    0.0000000   0.0000000   0.0000000   0.0000000   0.0000000   0.0000000   0.0000000   0.0000000   0.0000000   0.0000000
 NMagM=    0.0000000   0.0000000   0.0000000   0.0000000   0.0000000   0.0000000   2.7928460   2.7928460   2.7928460   2.7928460
 AtZNuc=   6.0000000   6.0000000   6.0000000   6.0000000   6.0000000   6.0000000   1.0000000   1.0000000   1.0000000   1.0000000

  Atom        11          12          13          14          15          16          17          18          19          20
 IAtWgt=          12          12          12          12           1          12           1          12           1           1
 AtmWgt=  12.0000000  12.0000000  12.0000000  12.0000000   1.0078250  12.0000000   1.0078250  12.0000000   1.0078250   1.0078250
 NucSpn=           0           0           0           0           1           0           1           0           1           1
 AtZEff=   0.0000000   0.0000000   0.0000000   0.0000000   0.0000000   0.0000000   0.0000000   0.0000000   0.0000000   0.0000000
 NQMom=    0.0000000   0.0000000   0.0000000   0.0000000   0.0000000   0.0000000   0.0000000   0.0000000   0.0000000   0.0000000
 NMagM=    0.0000000   0.0000000   0.0000000   0.0000000   2.7928460   0.0000000   2.7928460   0.0000000   2.7928460   2.7928460
 AtZNuc=   6.0000000   6.0000000   6.0000000   6.0000000   1.0000000   6.0000000   1.0000000   6.0000000   1.0000000   1.0000000

  Atom        21          22          23          24          25          26
 IAtWgt=          14          16          16          14           1           1
 AtmWgt=  14.0030740  15.9949146  15.9949146  14.0030740   1.0078250   1.0078250
 NucSpn=           2           0           0           2           1           1
 AtZEff=   0.0000000   0.0000000   0.0000000   0.0000000   0.0000000   0.0000000
 NQMom=    2.0440000   0.0000000   0.0000000   2.0440000   0.0000000   0.0000000
 NMagM=    0.4037610   0.0000000   0.0000000   0.4037610   2.7928460   2.7928460
 AtZNuc=   7.0000000   8.0000000   8.0000000   7.0000000   1.0000000   1.0000000
 Leave Link  101 at Sat Oct 31 23:01:21 2020, MaxMem=   655360000 cpu:               0.0 elap:               0.3
 (Enter D:\study\G16W\l202.exe)
                          Input orientation:                          
 ---------------------------------------------------------------------
 Center     Atomic      Atomic             Coordinates (Angstroms)
 Number     Number       Type             X           Y           Z
 ---------------------------------------------------------------------
      1          6           0        3.558638   -1.138747    0.399836
      2          6           0        2.170316   -1.133918    0.393595
      3          6           0        1.437420   -0.001168   -0.004712
      4          6           0        2.171107    1.131101   -0.402994
      5          6           0        3.559403    1.135587   -0.407278
      6          6           0        4.282122   -0.001795   -0.003524
      7          1           0        4.094552   -2.027842    0.724335
      8          1           0        1.643800   -2.019282    0.738753
      9          1           0        1.645290    2.018080   -0.745042
     10          1           0        4.096162    2.021237   -0.739602
     11          6           0       -0.040540   -0.000325   -0.003104
     12          6           0       -0.767741    1.170235    0.294088
     13          6           0       -0.769267   -1.170392   -0.298523
     14          6           0       -2.156627    1.180103    0.295206
     15          1           0       -0.234660    2.078825    0.555813
     16          6           0       -2.158185   -1.179384   -0.295595
     17          1           0       -0.237380   -2.079014   -0.562484
     18          6           0       -2.839993    0.000516    0.000961
     19          1           0       -2.717298    2.076167    0.531503
     20          1           0       -2.720025   -2.075075   -0.530534
     21          7           0       -4.304540    0.000917    0.003547
     22          8           0       -4.878793    1.060252    0.263468
     23          8           0       -4.880312   -1.058027   -0.254447
     24          7           0        5.671583   -0.020627   -0.056413
     25          1           0        6.126117   -0.705830    0.533278
     26          1           0        6.127057    0.882023   -0.015869
 ---------------------------------------------------------------------
                    Distance matrix (angstroms):
                    1          2          3          4          5
     1  C    0.000000
     2  C    1.388344   0.000000
     3  C    2.440760   1.406736   0.000000
     4  C    2.778847   2.401013   1.406755   0.000000
     5  C    2.413302   2.778779   2.440714   1.388310   0.000000
     6  C    1.406694   2.428813   2.844702   2.428871   1.406761
     7  H    1.087655   2.147364   3.420419   3.866450   3.402090
     8  H    2.134669   1.086380   2.160583   3.392131   3.864728
     9  H    3.864868   3.392232   2.160708   1.086376   2.134644
    10  H    3.401874   3.866267   3.420394   2.147437   1.087624
    11  C    3.796373   2.516006   1.477961   2.516231   3.796478
    12  C    4.905113   3.735131   2.514797   3.020643   4.383753
    13  C    4.384001   3.020183   2.514533   3.735450   4.905787
    14  C    6.168652   4.907831   3.795066   4.383967   5.759207
    15  H    4.976566   4.016459   2.726978   2.757754   4.026432
    16  C    5.759109   4.383260   3.794889   4.908426   6.169471
    17  H    4.027395   2.757588   2.726446   4.016352   4.977279
    18  C    6.511490   5.152116   4.277417   5.152914   6.512090
    19  H    7.052686   5.849140   4.675952   5.065860   6.415838
    20  H    6.415910   5.065099   4.675674   5.849701   7.053705
    21  N    7.955215   6.585116   5.741966   6.586091   7.955995
    22  O    8.720346   7.383851   6.410388   7.081686   8.465148
    23  O    8.464661   7.080754   6.410387   7.384907   8.721473
    24  N    2.433699   3.701458   4.234523   3.701341   2.433360
    25  H    2.607139   3.981348   4.771778   4.460160   3.295980
    26  H    3.294404   4.459538   4.772090   3.982643   2.609663
                    6          7          8          9         10
     6  C    0.000000
     7  H    2.160978   0.000000
     8  H    3.403230   2.450809   0.000000
     9  H    3.403326   4.952518   4.301388   0.000000
    10  H    2.160799   4.305596   4.952313   2.450880   0.000000
    11  C    4.322662   4.662508   2.731948   2.732481   4.662772
    12  C    5.192624   5.835641   4.023217   2.760679   5.044826
    13  C    5.193185   5.043629   2.760335   4.024403   5.835533
    14  C    6.553138   7.039340   4.987589   4.029751   6.393411
    15  H    5.004314   5.969522   4.511824   2.286947   4.520778
    16  C    6.553593   6.391937   4.028696   4.989208   7.039742
    17  H    5.005315   4.519309   2.288149   4.512644   5.968502
    18  C    7.122117   7.261227   4.972758   4.974419   7.262368
    19  H    7.320933   7.954959   5.986220   4.545890   6.931231
    20  H    7.321632   6.929314   4.545016   5.987980   7.955117
    21  N    8.586665   8.670648   6.324910   6.326911   8.672125
    22  O    9.226136   9.501034   7.228668   6.670696   9.081820
    23  O    9.226526   9.080019   6.668920   7.230947   9.502333
    24  N    1.390595   2.669364   4.566174   4.565257   2.667941
    25  H    2.045517   2.431352   4.675312   5.397370   3.630129
    26  H    2.045745   3.625782   5.393201   4.680657   2.438469
                   11         12         13         14         15
    11  C    0.000000
    12  C    1.409736   0.000000
    13  C    1.409742   2.414482   0.000000
    14  C    2.441357   1.388922   2.793225   0.000000
    15  H    2.161697   1.085454   3.401927   2.137656   0.000000
    16  C    2.441342   2.793165   1.388950   2.432330   3.878243
    17  H    2.161620   3.401855   1.085437   3.878271   4.305603
    18  C    2.799456   2.397581   2.397628   1.394631   3.378608
    19  H    3.429673   2.162834   3.876069   1.083106   2.482758
    20  H    3.429637   3.876010   2.162808   3.405209   4.961056
    21  N    4.264005   3.736397   3.736491   2.467605   4.602893
    22  O    4.960300   4.112637   4.709545   2.724988   4.763500
    23  O    4.960373   4.709489   4.112817   3.567885   5.663784
    24  N    5.712408   6.557888   6.547146   7.927563   6.298113
    25  H    6.230016   7.148574   6.960893   8.498074   6.943651
    26  H    6.230406   6.907777   7.200804   8.294880   6.498507
                   16         17         18         19         20
    16  C    0.000000
    17  H    2.137769   0.000000
    18  C    1.394622   3.378685   0.000000
    19  H    3.405189   4.961082   2.145893   0.000000
    20  H    1.083108   2.482854   2.145916   4.284943   0.000000
    21  N    2.467678   4.603074   1.464549   2.665471   2.665647
    22  O    3.567945   5.663912   2.312716   2.403328   3.888572
    23  O    2.725141   4.763834   2.312714   3.888383   2.403633
    24  N    7.918661   6.277652   8.511796   8.666921   8.652435
    25  H    8.339121   6.601547   9.009629   9.270680   9.014475
    26  H    8.542417   7.040780   9.010290   8.941376   9.342386
                   21         22         23         24         25
    21  N    0.000000
    22  O    1.232687   0.000000
    23  O    1.232654   2.180675   0.000000
    24  N    9.976326  10.610422  10.604617   0.000000
    25  H   10.467985  11.148986  11.040201   1.011850   0.000000
    26  H   10.468760  11.010837  11.179574   1.011868   1.680131
                   26
    26  H    0.000000
 Stoichiometry    C12H10N2O2
 Framework group  C1[X(C12H10N2O2)]
 Deg. of freedom    72
 Full point group                 C1      NOp   1
 Largest Abelian subgroup         C1      NOp   1
 Largest concise Abelian subgroup C1      NOp   1
                         Standard orientation:                         
 ---------------------------------------------------------------------
 Center     Atomic      Atomic             Coordinates (Angstroms)
 Number     Number       Type             X           Y           Z
 ---------------------------------------------------------------------
      1          6           0        3.558638   -1.138747    0.399836
      2          6           0        2.170316   -1.133918    0.393595
      3          6           0        1.437420   -0.001168   -0.004712
      4          6           0        2.171107    1.131101   -0.402994
      5          6           0        3.559403    1.135587   -0.407278
      6          6           0        4.282122   -0.001795   -0.003524
      7          1           0        4.094552   -2.027842    0.724335
      8          1           0        1.643800   -2.019282    0.738753
      9          1           0        1.645290    2.018080   -0.745042
     10          1           0        4.096162    2.021237   -0.739602
     11          6           0       -0.040540   -0.000325   -0.003104
     12          6           0       -0.767741    1.170235    0.294088
     13          6           0       -0.769267   -1.170392   -0.298523
     14          6           0       -2.156627    1.180103    0.295206
     15          1           0       -0.234660    2.078825    0.555813
     16          6           0       -2.158185   -1.179384   -0.295595
     17          1           0       -0.237380   -2.079014   -0.562484
     18          6           0       -2.839993    0.000516    0.000961
     19          1           0       -2.717298    2.076167    0.531503
     20          1           0       -2.720025   -2.075075   -0.530534
     21          7           0       -4.304540    0.000917    0.003547
     22          8           0       -4.878793    1.060252    0.263468
     23          8           0       -4.880312   -1.058027   -0.254447
     24          7           0        5.671583   -0.020627   -0.056413
     25          1           0        6.126117   -0.705830    0.533278
     26          1           0        6.127057    0.882023   -0.015869
 ---------------------------------------------------------------------
 Rotational constants (GHZ):           2.3298040           0.2019558           0.1883059
 Leave Link  202 at Sat Oct 31 23:01:22 2020, MaxMem=   655360000 cpu:               0.0 elap:               0.0
 (Enter D:\study\G16W\l301.exe)
 Standard basis: 6-31G(d) (6D, 7F)
 Ernie: Thresh=  0.10000D-02 Tol=  0.10000D-05 Strict=F.
 There are   260 symmetry adapted cartesian basis functions of A   symmetry.
 There are   260 symmetry adapted basis functions of A   symmetry.
   260 basis functions,   488 primitive gaussians,   260 cartesian basis functions
    56 alpha electrons       56 beta electrons
       nuclear repulsion energy       967.3008898109 Hartrees.
 IExCor=20419 DFT=T Ex+Corr=CAM-B3LYP ExCW=0 ScaHFX=  1.000000
 ScaDFX=  1.000000  1.000000  1.000000  0.810000 ScalE2=  1.000000  1.000000
 IRadAn=      5 IRanWt=     -1 IRanGd=            0 ICorTp=0 IEmpDi=  4
 HFx  wShort=  0.000000 wLong=  0.330000 cFull=  0.190000 cShort=  0.000000 cLong=  0.460000
 DFx  wShort=  0.000000 wLong=  0.330000 cFull=  0.190000 cShort=  0.000000 cLong=  0.460000
 NAtoms=   26 NActive=   26 NUniq=   26 SFac= 1.00D+00 NAtFMM=   60 NAOKFM=F Big=F
 Integral buffers will be    131072 words long.
 Raffenetti 2 integral format.
 Two-electron integral symmetry is turned on.
 Leave Link  301 at Sat Oct 31 23:01:22 2020, MaxMem=   655360000 cpu:               0.0 elap:               0.0
 (Enter D:\study\G16W\l302.exe)
 NPDir=0 NMtPBC=     1 NCelOv=     1 NCel=       1 NClECP=     1 NCelD=      1
         NCelK=      1 NCelE2=     1 NClLst=     1 CellRange=     0.0.
 One-electron integrals computed using PRISM.
 One-electron integral symmetry used in STVInt
 NBasis=   260 RedAO= T EigKep=  3.98D-04  NBF=   260
 NBsUse=   260 1.00D-06 EigRej= -1.00D+00 NBFU=   260
 Precomputing XC quadrature grid using
 IXCGrd= 4 IRadAn=           5 IRanWt=          -1 IRanGd=           0 AccXCQ= 0.00D+00.
 Generated NRdTot=       0 NPtTot=           0 NUsed=           0 NTot=          32
 NSgBfM=   258   258   258   258   258 MxSgAt=    26 MxSgA2=    26.
 Leave Link  302 at Sat Oct 31 23:01:24 2020, MaxMem=   655360000 cpu:               2.0 elap:               1.7
 (Enter D:\study\G16W\l303.exe)
 DipDrv:  MaxL=1.
 Leave Link  303 at Sat Oct 31 23:01:25 2020, MaxMem=   655360000 cpu:               0.0 elap:               0.1
 (Enter D:\study\G16W\l401.exe)
 ExpMin= 1.61D-01 ExpMax= 5.48D+03 ExpMxC= 8.25D+02 IAcc=3 IRadAn=         5 AccDes= 0.00D+00
 Harris functional with IExCor=20419 and IRadAn=       5 diagonalized for initial guess.
 HarFok:  IExCor=20419 AccDes= 0.00D+00 IRadAn=         5 IDoV= 1 UseB2=F ITyADJ=14
 ICtDFT=  3500011 ScaDFX=  1.000000  1.000000  1.000000  1.000000
 FoFCou: FMM=F IPFlag=           0 FMFlag=      100000 FMFlg1=           0
         NFxFlg=           0 DoJE=T BraDBF=F KetDBF=T FulRan=T
         wScrn=  0.000000 ICntrl=       500 IOpCl=  0 I1Cent=   200000004 NGrid=           0
         NMat0=    1 NMatS0=      1 NMatT0=    0 NMatD0=    1 NMtDS0=    0 NMtDT0=    0
 Petite list used in FoFCou.
 Harris En= -695.618728075744    
 JPrj=0 DoOrth=F DoCkMO=F.
 Leave Link  401 at Sat Oct 31 23:01:37 2020, MaxMem=   655360000 cpu:              12.0 elap:              11.9
 (Enter D:\study\G16W\l502.exe)
 Integral symmetry usage will be decided dynamically.
 Closed shell SCF:
 Using DIIS extrapolation, IDIIS=  1040.
 NGot=   655360000 LenX=   655220410 LenY=   655152369
 Requested convergence on RMS density matrix=1.00D-08 within 128 cycles.
 Requested convergence on MAX density matrix=1.00D-06.
 Requested convergence on             energy=1.00D-06.
 No special actions if energy rises.
 Fock matrices will be formed incrementally for  20 cycles.
 Integral accuracy reduced to 1.0D-05 until final iterations.

 Cycle   1  Pass 0  IDiag  1:
 FoFJK:  IHMeth= 1 ICntrl=       0 DoSepK=T KAlg= 0 I1Cent=           0 FoldK=F
 IRaf=         1 NMat=       1 IRICut=       1 DoRegI=T DoRafI=F ISym2E= 0 IDoP0=0 IntGTp=1.
 FoFCou: FMM=F IPFlag=           0 FMFlag=      100000 FMFlg1=           0
         NFxFlg=           0 DoJE=T BraDBF=F KetDBF=F FulRan=T
         wScrn=  0.000000 ICntrl=       500 IOpCl=  0 I1Cent=           0 NGrid=           0
         NMat0=    1 NMatS0=      1 NMatT0=    0 NMatD0=    1 NMtDS0=    0 NMtDT0=    0
 Symmetry not used in FoFCou.
 E= -722.525649043041    
 DIIS: error= 6.55D-02 at cycle   1 NSaved=   1.
 NSaved= 1 IEnMin= 1 EnMin= -722.525649043041     IErMin= 1 ErrMin= 6.55D-02
 ErrMax= 6.55D-02  0.00D+00 EMaxC= 1.00D-01 BMatC= 6.53D-01 BMatP= 6.53D-01
 IDIUse=3 WtCom= 3.45D-01 WtEn= 6.55D-01
 Coeff-Com:  0.100D+01
 Coeff-En:   0.100D+01
 Coeff:      0.100D+01
 Gap=     0.257 Goal=   None    Shift=    0.000
 GapD=    0.257 DampG=1.000 DampE=0.500 DampFc=0.5000 IDamp=-1.
 Damping current iteration by 5.00D-01
 RMSDP=4.25D-03 MaxDP=2.28D-01              OVMax= 2.78D-01

 Cycle   2  Pass 0  IDiag  1:
 RMSU=  2.13D-03    CP:  9.98D-01
 E= -722.627719663543     Delta-E=       -0.102070620502 Rises=F Damp=T
 DIIS: error= 3.46D-02 at cycle   2 NSaved=   2.
 NSaved= 2 IEnMin= 2 EnMin= -722.627719663543     IErMin= 2 ErrMin= 3.46D-02
 ErrMax= 3.46D-02  0.00D+00 EMaxC= 1.00D-01 BMatC= 1.15D-01 BMatP= 6.53D-01
 IDIUse=3 WtCom= 6.54D-01 WtEn= 3.46D-01
 Coeff-Com: -0.157D+00 0.116D+01
 Coeff-En:   0.159D+00 0.841D+00
 Coeff:     -0.480D-01 0.105D+01
 Gap=     0.259 Goal=   None    Shift=    0.000
 RMSDP=1.52D-03 MaxDP=6.84D-02 DE=-1.02D-01 OVMax= 2.64D-01

 Cycle   3  Pass 0  IDiag  1:
 RMSU=  1.51D-03    CP:  9.96D-01  9.65D-01
 E= -722.762699361461     Delta-E=       -0.134979697918 Rises=F Damp=F
 DIIS: error= 1.68D-02 at cycle   3 NSaved=   3.
 NSaved= 3 IEnMin= 3 EnMin= -722.762699361461     IErMin= 3 ErrMin= 1.68D-02
 ErrMax= 1.68D-02  0.00D+00 EMaxC= 1.00D-01 BMatC= 4.06D-02 BMatP= 1.15D-01
 IDIUse=3 WtCom= 8.32D-01 WtEn= 1.68D-01
 Coeff-Com: -0.204D+00 0.488D+00 0.715D+00
 Coeff-En:   0.000D+00 0.000D+00 0.100D+01
 Coeff:     -0.170D+00 0.407D+00 0.763D+00
 Gap=     0.227 Goal=   None    Shift=    0.000
 RMSDP=8.98D-04 MaxDP=4.61D-02 DE=-1.35D-01 OVMax= 6.64D-02

 Cycle   4  Pass 0  IDiag  1:
 RMSU=  6.24D-04    CP:  9.96D-01  1.19D+00  7.09D-01
 E= -722.787224889485     Delta-E=       -0.024525528023 Rises=F Damp=F
 DIIS: error= 6.06D-03 at cycle   4 NSaved=   4.
 NSaved= 4 IEnMin= 4 EnMin= -722.787224889485     IErMin= 4 ErrMin= 6.06D-03
 ErrMax= 6.06D-03  0.00D+00 EMaxC= 1.00D-01 BMatC= 1.13D-02 BMatP= 4.06D-02
 IDIUse=3 WtCom= 9.39D-01 WtEn= 6.06D-02
 Coeff-Com: -0.978D-01 0.204D+00 0.458D+00 0.436D+00
 Coeff-En:   0.000D+00 0.000D+00 0.207D+00 0.793D+00
 Coeff:     -0.918D-01 0.192D+00 0.442D+00 0.458D+00
 Gap=     0.218 Goal=   None    Shift=    0.000
 RMSDP=3.84D-04 MaxDP=1.32D-02 DE=-2.45D-02 OVMax= 1.89D-02

 Cycle   5  Pass 0  IDiag  1:
 RMSU=  1.83D-04    CP:  9.95D-01  1.17D+00  8.28D-01  5.47D-01
 E= -722.796335806682     Delta-E=       -0.009110917197 Rises=F Damp=F
 DIIS: error= 6.73D-04 at cycle   5 NSaved=   5.
 NSaved= 5 IEnMin= 5 EnMin= -722.796335806682     IErMin= 5 ErrMin= 6.73D-04
 ErrMax= 6.73D-04  0.00D+00 EMaxC= 1.00D-01 BMatC= 7.28D-05 BMatP= 1.13D-02
 IDIUse=3 WtCom= 9.93D-01 WtEn= 6.73D-03
 Coeff-Com: -0.498D-02 0.806D-02 0.814D-02 0.530D-01 0.936D+00
 Coeff-En:   0.000D+00 0.000D+00 0.000D+00 0.000D+00 0.100D+01
 Coeff:     -0.495D-02 0.801D-02 0.809D-02 0.526D-01 0.936D+00
 Gap=     0.218 Goal=   None    Shift=    0.000
 RMSDP=7.33D-05 MaxDP=2.73D-03 DE=-9.11D-03 OVMax= 6.69D-03

 Cycle   6  Pass 0  IDiag  1:
 RMSU=  4.98D-05    CP:  9.95D-01  1.18D+00  8.27D-01  6.05D-01  1.18D+00
 E= -722.796444922358     Delta-E=       -0.000109115676 Rises=F Damp=F
 DIIS: error= 3.28D-04 at cycle   6 NSaved=   6.
 NSaved= 6 IEnMin= 6 EnMin= -722.796444922358     IErMin= 6 ErrMin= 3.28D-04
 ErrMax= 3.28D-04  0.00D+00 EMaxC= 1.00D-01 BMatC= 2.49D-05 BMatP= 7.28D-05
 IDIUse=3 WtCom= 9.97D-01 WtEn= 3.28D-03
 Coeff-Com:  0.108D-01-0.232D-01-0.602D-01-0.402D-01 0.485D+00 0.628D+00
 Coeff-En:   0.000D+00 0.000D+00 0.000D+00 0.000D+00 0.000D+00 0.100D+01
 Coeff:      0.107D-01-0.231D-01-0.600D-01-0.401D-01 0.484D+00 0.629D+00
 Gap=     0.219 Goal=   None    Shift=    0.000
 RMSDP=2.89D-05 MaxDP=8.44D-04 DE=-1.09D-04 OVMax= 3.08D-03

 Cycle   7  Pass 0  IDiag  1:
 RMSU=  1.85D-05    CP:  9.94D-01  1.18D+00  8.34D-01  6.00D-01  1.27D+00
                    CP:  8.39D-01
 E= -722.796475943402     Delta-E=       -0.000031021044 Rises=F Damp=F
 DIIS: error= 8.71D-05 at cycle   7 NSaved=   7.
 NSaved= 7 IEnMin= 7 EnMin= -722.796475943402     IErMin= 7 ErrMin= 8.71D-05
 ErrMax= 8.71D-05  0.00D+00 EMaxC= 1.00D-01 BMatC= 1.69D-06 BMatP= 2.49D-05
 IDIUse=1 WtCom= 1.00D+00 WtEn= 0.00D+00
 Coeff-Com:  0.481D-02-0.100D-01-0.216D-01-0.176D-01 0.971D-01 0.220D+00
 Coeff-Com:  0.728D+00
 Coeff:      0.481D-02-0.100D-01-0.216D-01-0.176D-01 0.971D-01 0.220D+00
 Coeff:      0.728D+00
 Gap=     0.219 Goal=   None    Shift=    0.000
 RMSDP=8.84D-06 MaxDP=2.22D-04 DE=-3.10D-05 OVMax= 9.39D-04

 Initial convergence to 1.0D-05 achieved.  Increase integral accuracy.
 Cycle   8  Pass 1  IDiag  1:
 E= -722.796488976140     Delta-E=       -0.000013032738 Rises=F Damp=F
 DIIS: error= 6.23D-05 at cycle   1 NSaved=   1.
 NSaved= 1 IEnMin= 1 EnMin= -722.796488976140     IErMin= 1 ErrMin= 6.23D-05
 ErrMax= 6.23D-05  0.00D+00 EMaxC= 1.00D-01 BMatC= 6.31D-07 BMatP= 6.31D-07
 IDIUse=1 WtCom= 1.00D+00 WtEn= 0.00D+00
 Coeff-Com:  0.100D+01
 Coeff:      0.100D+01
 Gap=     0.219 Goal=   None    Shift=    0.000
 RMSDP=8.84D-06 MaxDP=2.22D-04 DE=-1.30D-05 OVMax= 5.33D-04

 Cycle   9  Pass 1  IDiag  1:
 RMSU=  3.11D-05    CP:  1.00D+00
 E= -722.796489017173     Delta-E=       -0.000000041033 Rises=F Damp=F
 DIIS: error= 5.35D-05 at cycle   2 NSaved=   2.
 NSaved= 2 IEnMin= 2 EnMin= -722.796489017173     IErMin= 2 ErrMin= 5.35D-05
 ErrMax= 5.35D-05  0.00D+00 EMaxC= 1.00D-01 BMatC= 7.35D-07 BMatP= 6.31D-07
 IDIUse=1 WtCom= 1.00D+00 WtEn= 0.00D+00
 Coeff-Com:  0.522D+00 0.478D+00
 Coeff:      0.522D+00 0.478D+00
 Gap=     0.219 Goal=   None    Shift=    0.000
 RMSDP=4.33D-06 MaxDP=1.16D-04 DE=-4.10D-08 OVMax= 3.27D-04

 Cycle  10  Pass 1  IDiag  1:
 RMSU=  4.31D-06    CP:  1.00D+00  9.88D-01
 E= -722.796489756229     Delta-E=       -0.000000739056 Rises=F Damp=F
 DIIS: error= 1.36D-05 at cycle   3 NSaved=   3.
 NSaved= 3 IEnMin= 3 EnMin= -722.796489756229     IErMin= 3 ErrMin= 1.36D-05
 ErrMax= 1.36D-05  0.00D+00 EMaxC= 1.00D-01 BMatC= 3.80D-08 BMatP= 6.31D-07
 IDIUse=1 WtCom= 1.00D+00 WtEn= 0.00D+00
 Coeff-Com:  0.574D-01 0.180D+00 0.763D+00
 Coeff:      0.574D-01 0.180D+00 0.763D+00
 Gap=     0.219 Goal=   None    Shift=    0.000
 RMSDP=1.30D-06 MaxDP=4.44D-05 DE=-7.39D-07 OVMax= 9.06D-05

 Cycle  11  Pass 1  IDiag  1:
 RMSU=  1.06D-06    CP:  1.00D+00  1.01D+00  9.06D-01
 E= -722.796489792111     Delta-E=       -0.000000035882 Rises=F Damp=F
 DIIS: error= 1.27D-05 at cycle   4 NSaved=   4.
 NSaved= 4 IEnMin= 4 EnMin= -722.796489792111     IErMin= 4 ErrMin= 1.27D-05
 ErrMax= 1.27D-05  0.00D+00 EMaxC= 1.00D-01 BMatC= 1.57D-08 BMatP= 3.80D-08
 IDIUse=1 WtCom= 1.00D+00 WtEn= 0.00D+00
 Coeff-Com: -0.257D-01 0.517D-01 0.463D+00 0.511D+00
 Coeff:     -0.257D-01 0.517D-01 0.463D+00 0.511D+00
 Gap=     0.219 Goal=   None    Shift=    0.000
 RMSDP=5.23D-07 MaxDP=3.33D-05 DE=-3.59D-08 OVMax= 5.41D-05

 Cycle  12  Pass 1  IDiag  1:
 RMSU=  4.65D-07    CP:  1.00D+00  1.01D+00  9.21D-01  8.15D-01
 E= -722.796489806331     Delta-E=       -0.000000014221 Rises=F Damp=F
 DIIS: error= 4.42D-06 at cycle   5 NSaved=   5.
 NSaved= 5 IEnMin= 5 EnMin= -722.796489806331     IErMin= 5 ErrMin= 4.42D-06
 ErrMax= 4.42D-06  0.00D+00 EMaxC= 1.00D-01 BMatC= 1.73D-09 BMatP= 1.57D-08
 IDIUse=1 WtCom= 1.00D+00 WtEn= 0.00D+00
 Coeff-Com: -0.196D-01 0.605D-02 0.157D+00 0.281D+00 0.575D+00
 Coeff:     -0.196D-01 0.605D-02 0.157D+00 0.281D+00 0.575D+00
 Gap=     0.219 Goal=   None    Shift=    0.000
 RMSDP=2.17D-07 MaxDP=9.77D-06 DE=-1.42D-08 OVMax= 1.96D-05

 Cycle  13  Pass 1  IDiag  1:
 RMSU=  1.92D-07    CP:  1.00D+00  1.01D+00  9.33D-01  8.97D-01  1.03D+00
 E= -722.796489808299     Delta-E=       -0.000000001967 Rises=F Damp=F
 DIIS: error= 1.29D-06 at cycle   6 NSaved=   6.
 NSaved= 6 IEnMin= 6 EnMin= -722.796489808299     IErMin= 6 ErrMin= 1.29D-06
 ErrMax= 1.29D-06  0.00D+00 EMaxC= 1.00D-01 BMatC= 3.15D-10 BMatP= 1.73D-09
 IDIUse=1 WtCom= 1.00D+00 WtEn= 0.00D+00
 Coeff-Com:  0.223D-02-0.230D-01-0.140D+00-0.891D-01 0.291D+00 0.959D+00
 Coeff:      0.223D-02-0.230D-01-0.140D+00-0.891D-01 0.291D+00 0.959D+00
 Gap=     0.219 Goal=   None    Shift=    0.000
 RMSDP=1.90D-07 MaxDP=4.89D-06 DE=-1.97D-09 OVMax= 2.33D-05

 Cycle  14  Pass 1  IDiag  1:
 RMSU=  5.56D-08    CP:  1.00D+00  1.01D+00  9.38D-01  1.01D+00  1.31D+00
                    CP:  1.03D+00
 E= -722.796489808939     Delta-E=       -0.000000000640 Rises=F Damp=F
 DIIS: error= 2.94D-07 at cycle   7 NSaved=   7.
 NSaved= 7 IEnMin= 7 EnMin= -722.796489808939     IErMin= 7 ErrMin= 2.94D-07
 ErrMax= 2.94D-07  0.00D+00 EMaxC= 1.00D-01 BMatC= 2.56D-11 BMatP= 3.15D-10
 IDIUse=1 WtCom= 1.00D+00 WtEn= 0.00D+00
 Coeff-Com:  0.197D-02-0.127D-01-0.811D-01-0.577D-01 0.137D+00 0.516D+00
 Coeff-Com:  0.497D+00
 Coeff:      0.197D-02-0.127D-01-0.811D-01-0.577D-01 0.137D+00 0.516D+00
 Coeff:      0.497D+00
 Gap=     0.219 Goal=   None    Shift=    0.000
 RMSDP=2.15D-08 MaxDP=7.12D-07 DE=-6.40D-10 OVMax= 1.46D-06

 Cycle  15  Pass 1  IDiag  1:
 RMSU=  1.73D-08    CP:  1.00D+00  1.01D+00  9.39D-01  1.02D+00  1.32D+00
                    CP:  1.06D+00  9.21D-01
 E= -722.796489808977     Delta-E=       -0.000000000038 Rises=F Damp=F
 DIIS: error= 9.23D-08 at cycle   8 NSaved=   8.
 NSaved= 8 IEnMin= 8 EnMin= -722.796489808977     IErMin= 8 ErrMin= 9.23D-08
 ErrMax= 9.23D-08  0.00D+00 EMaxC= 1.00D-01 BMatC= 1.64D-12 BMatP= 2.56D-11
 IDIUse=1 WtCom= 1.00D+00 WtEn= 0.00D+00
 Coeff-Com:  0.361D-03-0.105D-02-0.724D-02-0.718D-02 0.244D-02 0.348D-01
 Coeff-Com:  0.156D+00 0.821D+00
 Coeff:      0.361D-03-0.105D-02-0.724D-02-0.718D-02 0.244D-02 0.348D-01
 Coeff:      0.156D+00 0.821D+00
 Gap=     0.219 Goal=   None    Shift=    0.000
 RMSDP=9.70D-09 MaxDP=3.10D-07 DE=-3.80D-11 OVMax= 9.20D-07

 SCF Done:  E(RCAM-B3LYP) =  -722.796489809     A.U. after   15 cycles
            NFock= 15  Conv=0.97D-08     -V/T= 2.0093
 KE= 7.161595241614D+02 PE=-3.616278288924D+03 EE= 1.210021385143D+03
 Leave Link  502 at Sat Oct 31 23:06:27 2020, MaxMem=   655360000 cpu:             290.0 elap:             289.9
 (Enter D:\study\G16W\l601.exe)
 Copying SCF densities to generalized density rwf, IOpCl= 0 IROHF=0.

 **********************************************************************

            Population analysis using the SCF density.

 **********************************************************************

 Orbital symmetries:
       Occupied  (A) (A) (A) (A) (A) (A) (A) (A) (A) (A) (A) (A)
                 (A) (A) (A) (A) (A) (A) (A) (A) (A) (A) (A) (A)
                 (A) (A) (A) (A) (A) (A) (A) (A) (A) (A) (A) (A)
                 (A) (A) (A) (A) (A) (A) (A) (A) (A) (A) (A) (A)
                 (A) (A) (A) (A) (A) (A) (A) (A)
       Virtual   (A) (A) (A) (A) (A) (A) (A) (A) (A) (A) (A) (A)
                 (A) (A) (A) (A) (A) (A) (A) (A) (A) (A) (A) (A)
                 (A) (A) (A) (A) (A) (A) (A) (A) (A) (A) (A) (A)
                 (A) (A) (A) (A) (A) (A) (A) (A) (A) (A) (A) (A)
                 (A) (A) (A) (A) (A) (A) (A) (A) (A) (A) (A) (A)
                 (A) (A) (A) (A) (A) (A) (A) (A) (A) (A) (A) (A)
                 (A) (A) (A) (A) (A) (A) (A) (A) (A) (A) (A) (A)
                 (A) (A) (A) (A) (A) (A) (A) (A) (A) (A) (A) (A)
                 (A) (A) (A) (A) (A) (A) (A) (A) (A) (A) (A) (A)
                 (A) (A) (A) (A) (A) (A) (A) (A) (A) (A) (A) (A)
                 (A) (A) (A) (A) (A) (A) (A) (A) (A) (A) (A) (A)
                 (A) (A) (A) (A) (A) (A) (A) (A) (A) (A) (A) (A)
                 (A) (A) (A) (A) (A) (A) (A) (A) (A) (A) (A) (A)
                 (A) (A) (A) (A) (A) (A) (A) (A) (A) (A) (A) (A)
                 (A) (A) (A) (A) (A) (A) (A) (A) (A) (A) (A) (A)
                 (A) (A) (A) (A) (A) (A) (A) (A) (A) (A) (A) (A)
                 (A) (A) (A) (A) (A) (A) (A) (A) (A) (A) (A) (A)
 The electronic state is 1-A.
 Alpha  occ. eigenvalues --  -19.24632 -19.24629 -14.64437 -14.42616 -10.31885
 Alpha  occ. eigenvalues --  -10.31744 -10.29617 -10.28774 -10.28768 -10.28075
 Alpha  occ. eigenvalues --  -10.28062 -10.27548 -10.27536 -10.27433 -10.26826
 Alpha  occ. eigenvalues --  -10.26820  -1.29846  -1.12161  -1.01317  -0.97128
 Alpha  occ. eigenvalues --   -0.93548  -0.88646  -0.84864  -0.83484  -0.82351
 Alpha  occ. eigenvalues --   -0.76233  -0.71448  -0.68776  -0.68740  -0.65574
 Alpha  occ. eigenvalues --   -0.62723  -0.60525  -0.59791  -0.59310  -0.57562
 Alpha  occ. eigenvalues --   -0.57350  -0.53580  -0.52876  -0.51990  -0.50885
 Alpha  occ. eigenvalues --   -0.50233  -0.49362  -0.48169  -0.46467  -0.45059
 Alpha  occ. eigenvalues --   -0.43029  -0.42710  -0.40694  -0.39056  -0.36655
 Alpha  occ. eigenvalues --   -0.36221  -0.35014  -0.32853  -0.32534  -0.31585
 Alpha  occ. eigenvalues --   -0.25710
 Alpha virt. eigenvalues --   -0.03775   0.02805   0.03355   0.03900   0.08886
 Alpha virt. eigenvalues --    0.11926   0.13979   0.15243   0.15626   0.17947
 Alpha virt. eigenvalues --    0.19953   0.20367   0.21673   0.22822   0.23427
 Alpha virt. eigenvalues --    0.24022   0.25210   0.27179   0.29473   0.29918
 Alpha virt. eigenvalues --    0.33217   0.33941   0.33982   0.36626   0.37923
 Alpha virt. eigenvalues --    0.38110   0.40720   0.42657   0.43777   0.45259
 Alpha virt. eigenvalues --    0.53002   0.54994   0.55393   0.56691   0.57937
 Alpha virt. eigenvalues --    0.58551   0.58898   0.61337   0.61494   0.62183
 Alpha virt. eigenvalues --    0.62569   0.63459   0.63680   0.64114   0.64971
 Alpha virt. eigenvalues --    0.65235   0.65469   0.66070   0.67551   0.67837
 Alpha virt. eigenvalues --    0.70267   0.71089   0.71861   0.73311   0.73798
 Alpha virt. eigenvalues --    0.76100   0.77351   0.78688   0.79671   0.82909
 Alpha virt. eigenvalues --    0.83705   0.84403   0.85314   0.86386   0.87621
 Alpha virt. eigenvalues --    0.88550   0.88773   0.90321   0.91624   0.92946
 Alpha virt. eigenvalues --    0.93094   0.94171   0.95085   0.96441   0.98715
 Alpha virt. eigenvalues --    0.98963   1.01368   1.02590   1.03303   1.04204
 Alpha virt. eigenvalues --    1.04759   1.05686   1.05931   1.07230   1.08527
 Alpha virt. eigenvalues --    1.09478   1.12045   1.15246   1.16662   1.17126
 Alpha virt. eigenvalues --    1.20815   1.21012   1.23933   1.24989   1.25990
 Alpha virt. eigenvalues --    1.26606   1.29964   1.32860   1.34773   1.35346
 Alpha virt. eigenvalues --    1.39537   1.42120   1.43392   1.43971   1.46848
 Alpha virt. eigenvalues --    1.49026   1.50060   1.52617   1.52765   1.54175
 Alpha virt. eigenvalues --    1.54674   1.55660   1.56315   1.56776   1.58544
 Alpha virt. eigenvalues --    1.62920   1.70178   1.77314   1.78960   1.79251
 Alpha virt. eigenvalues --    1.82446   1.83606   1.83950   1.85593   1.87709
 Alpha virt. eigenvalues --    1.88831   1.89002   1.91146   1.91658   1.95935
 Alpha virt. eigenvalues --    1.97412   1.98378   1.99345   2.01920   2.02577
 Alpha virt. eigenvalues --    2.03633   2.04832   2.08075   2.11124   2.11149
 Alpha virt. eigenvalues --    2.13869   2.14818   2.16989   2.19270   2.19731
 Alpha virt. eigenvalues --    2.21103   2.21260   2.22017   2.24902   2.25439
 Alpha virt. eigenvalues --    2.27453   2.30657   2.32951   2.35372   2.36767
 Alpha virt. eigenvalues --    2.38393   2.40744   2.46260   2.46641   2.50162
 Alpha virt. eigenvalues --    2.53123   2.55170   2.55982   2.59716   2.62687
 Alpha virt. eigenvalues --    2.65892   2.66319   2.67827   2.70327   2.71982
 Alpha virt. eigenvalues --    2.75087   2.78647   2.80198   2.83398   2.83594
 Alpha virt. eigenvalues --    2.84581   2.90236   2.93631   2.95023   2.97223
 Alpha virt. eigenvalues --    2.98351   3.04720   3.06255   3.14412   3.20672
 Alpha virt. eigenvalues --    3.30272   3.43975   3.53659   3.79858   3.89679
 Alpha virt. eigenvalues --    3.98184   4.04622   4.14743   4.15730   4.17201
 Alpha virt. eigenvalues --    4.18129   4.18747   4.23538   4.38295   4.39360
 Alpha virt. eigenvalues --    4.39653   4.52202   4.72781   4.84198
          Condensed to atoms (all electrons):
               1          2          3          4          5          6
     1  C    4.978279   0.522437  -0.028046  -0.044943  -0.045571   0.546156
     2  C    0.522437   4.956492   0.530677  -0.050145  -0.044532  -0.018275
     3  C   -0.028046   0.530677   4.768022   0.530116  -0.027986  -0.025979
     4  C   -0.044943  -0.050145   0.530116   4.957299   0.522018  -0.017668
     5  C   -0.045571  -0.044532  -0.027986   0.522018   4.978884   0.545816
     6  C    0.546156  -0.018275  -0.025979  -0.017668   0.545816   4.456637
     7  H    0.354156  -0.033163   0.003053   0.000517   0.005310  -0.042258
     8  H   -0.037334   0.353896  -0.039291   0.005661   0.000553   0.003290
     9  H    0.000545   0.005672  -0.039141   0.354032  -0.037436   0.003256
    10  H    0.005281   0.000537   0.003067  -0.033134   0.354257  -0.042280
    11  C    0.005799  -0.046378   0.357877  -0.046590   0.005819   0.000715
    12  C   -0.000141   0.005826  -0.048677  -0.012598   0.000337  -0.000003
    13  C    0.000351  -0.012665  -0.048476   0.005894  -0.000149  -0.000003
    14  C    0.000002  -0.000164   0.005605   0.000322  -0.000004   0.000000
    15  H   -0.000007  -0.000044  -0.009255   0.005244   0.000042  -0.000003
    16  C   -0.000003   0.000313   0.005536  -0.000163   0.000002   0.000000
    17  H    0.000055   0.005166  -0.009151  -0.000037  -0.000005  -0.000009
    18  C    0.000000  -0.000001   0.000450  -0.000002   0.000000   0.000000
    19  H    0.000000   0.000001  -0.000112  -0.000001   0.000000   0.000000
    20  H    0.000000  -0.000001  -0.000111   0.000001   0.000000   0.000000
    21  N    0.000000   0.000000  -0.000001   0.000000   0.000000   0.000000
    22  O    0.000000   0.000000   0.000000   0.000000   0.000000   0.000000
    23  O    0.000000   0.000000   0.000000   0.000000   0.000000   0.000000
    24  N   -0.070532   0.004863   0.000417   0.004903  -0.070647   0.315884
    25  H   -0.007944  -0.000033   0.000000  -0.000136   0.005138  -0.022207
    26  H    0.005141  -0.000146   0.000003  -0.000021  -0.007894  -0.022191
               7          8          9         10         11         12
     1  C    0.354156  -0.037334   0.000545   0.005281   0.005799  -0.000141
     2  C   -0.033163   0.353896   0.005672   0.000537  -0.046378   0.005826
     3  C    0.003053  -0.039291  -0.039141   0.003067   0.357877  -0.048677
     4  C    0.000517   0.005661   0.354032  -0.033134  -0.046590  -0.012598
     5  C    0.005310   0.000553  -0.037436   0.354257   0.005819   0.000337
     6  C   -0.042258   0.003290   0.003256  -0.042280   0.000715  -0.000003
     7  H    0.590122  -0.005321   0.000015  -0.000161  -0.000166   0.000001
     8  H   -0.005321   0.578499  -0.000165   0.000015  -0.009591  -0.000046
     9  H    0.000015  -0.000165   0.578085  -0.005313  -0.009580   0.005039
    10  H   -0.000161   0.000015  -0.005313   0.589536  -0.000167  -0.000001
    11  C   -0.000166  -0.009591  -0.009580  -0.000167   4.737155   0.519902
    12  C    0.000001  -0.000046   0.005039  -0.000001   0.519902   5.034903
    13  C    0.000000   0.005075  -0.000042   0.000001   0.519745  -0.050316
    14  C    0.000000  -0.000004   0.000037   0.000000  -0.022464   0.468195
    15  H    0.000000   0.000000   0.002623   0.000003  -0.037284   0.358500
    16  C    0.000000   0.000034  -0.000004   0.000000  -0.022625  -0.041266
    17  H    0.000005   0.002548   0.000000   0.000000  -0.037165   0.005668
    18  C    0.000000  -0.000007  -0.000007   0.000000  -0.029641  -0.023055
    19  H    0.000000   0.000000   0.000004   0.000000   0.002740  -0.033500
    20  H    0.000000   0.000004   0.000000   0.000000   0.002743   0.000136
    21  N    0.000000   0.000000   0.000000   0.000000   0.000028   0.003857
    22  O    0.000000   0.000000   0.000000   0.000000  -0.000007   0.001222
    23  O    0.000000   0.000000   0.000000   0.000000  -0.000008  -0.000027
    24  N   -0.007324  -0.000109  -0.000107  -0.007246  -0.000002   0.000000
    25  H    0.005265  -0.000007   0.000003  -0.000107   0.000000   0.000000
    26  H   -0.000104   0.000003  -0.000008   0.005124   0.000000   0.000000
              13         14         15         16         17         18
     1  C    0.000351   0.000002  -0.000007  -0.000003   0.000055   0.000000
     2  C   -0.012665  -0.000164  -0.000044   0.000313   0.005166  -0.000001
     3  C   -0.048476   0.005605  -0.009255   0.005536  -0.009151   0.000450
     4  C    0.005894   0.000322   0.005244  -0.000163  -0.000037  -0.000002
     5  C   -0.000149  -0.000004   0.000042   0.000002  -0.000005   0.000000
     6  C   -0.000003   0.000000  -0.000003   0.000000  -0.000009   0.000000
     7  H    0.000000   0.000000   0.000000   0.000000   0.000005   0.000000
     8  H    0.005075  -0.000004   0.000000   0.000034   0.002548  -0.000007
     9  H   -0.000042   0.000037   0.002623  -0.000004   0.000000  -0.000007
    10  H    0.000001   0.000000   0.000003   0.000000   0.000000   0.000000
    11  C    0.519745  -0.022464  -0.037284  -0.022625  -0.037165  -0.029641
    12  C   -0.050316   0.468195   0.358500  -0.041266   0.005668  -0.023055
    13  C    5.034144  -0.041258   0.005685   0.468706   0.358642  -0.023078
    14  C   -0.041258   5.036851  -0.037923  -0.084852   0.000392   0.506354
    15  H    0.005685  -0.037923   0.562231   0.000391  -0.000145   0.003030
    16  C    0.468706  -0.084852   0.000391   5.036418  -0.037832   0.506402
    17  H    0.358642   0.000392  -0.000145  -0.037832   0.560744   0.003026
    18  C   -0.023078   0.506354   0.003030   0.506402   0.003026   4.865039
    19  H    0.000135   0.350679  -0.004313   0.005575   0.000013  -0.026082
    20  H   -0.033440   0.005570   0.000013   0.350713  -0.004300  -0.026119
    21  N    0.003852  -0.041900  -0.000073  -0.041903  -0.000073   0.181903
    22  O   -0.000027   0.003057  -0.000001   0.006947   0.000001  -0.098797
    23  O    0.001222   0.006948   0.000001   0.003059  -0.000001  -0.098775
    24  N    0.000000   0.000000   0.000000   0.000000   0.000000   0.000000
    25  H    0.000000   0.000000   0.000000   0.000000   0.000000   0.000000
    26  H    0.000000   0.000000   0.000000   0.000000   0.000000   0.000000
              19         20         21         22         23         24
     1  C    0.000000   0.000000   0.000000   0.000000   0.000000  -0.070532
     2  C    0.000001  -0.000001   0.000000   0.000000   0.000000   0.004863
     3  C   -0.000112  -0.000111  -0.000001   0.000000   0.000000   0.000417
     4  C   -0.000001   0.000001   0.000000   0.000000   0.000000   0.004903
     5  C    0.000000   0.000000   0.000000   0.000000   0.000000  -0.070647
     6  C    0.000000   0.000000   0.000000   0.000000   0.000000   0.315884
     7  H    0.000000   0.000000   0.000000   0.000000   0.000000  -0.007324
     8  H    0.000000   0.000004   0.000000   0.000000   0.000000  -0.000109
     9  H    0.000004   0.000000   0.000000   0.000000   0.000000  -0.000107
    10  H    0.000000   0.000000   0.000000   0.000000   0.000000  -0.007246
    11  C    0.002740   0.002743   0.000028  -0.000007  -0.000008  -0.000002
    12  C   -0.033500   0.000136   0.003857   0.001222  -0.000027   0.000000
    13  C    0.000135  -0.033440   0.003852  -0.000027   0.001222   0.000000
    14  C    0.350679   0.005570  -0.041900   0.003057   0.006948   0.000000
    15  H   -0.004313   0.000013  -0.000073  -0.000001   0.000001   0.000000
    16  C    0.005575   0.350713  -0.041903   0.006947   0.003059   0.000000
    17  H    0.000013  -0.004300  -0.000073   0.000001  -0.000001   0.000000
    18  C   -0.026082  -0.026119   0.181903  -0.098797  -0.098775   0.000000
    19  H    0.511707  -0.000128  -0.011665   0.017049   0.000143   0.000000
    20  H   -0.000128   0.511427  -0.011655   0.000143   0.017023   0.000000
    21  N   -0.011665  -0.011655   5.921787   0.308710   0.308738   0.000000
    22  O    0.017049   0.000143   0.308710   8.264315  -0.103826   0.000000
    23  O    0.000143   0.017023   0.308738  -0.103826   8.264127   0.000000
    24  N    0.000000   0.000000   0.000000   0.000000   0.000000   6.984407
    25  H    0.000000   0.000000   0.000000   0.000000   0.000000   0.319567
    26  H    0.000000   0.000000   0.000000   0.000000   0.000000   0.319484
              25         26
     1  C   -0.007944   0.005141
     2  C   -0.000033  -0.000146
     3  C    0.000000   0.000003
     4  C   -0.000136  -0.000021
     5  C    0.005138  -0.007894
     6  C   -0.022207  -0.022191
     7  H    0.005265  -0.000104
     8  H   -0.000007   0.000003
     9  H    0.000003  -0.000008
    10  H   -0.000107   0.005124
    11  C    0.000000   0.000000
    12  C    0.000000   0.000000
    13  C    0.000000   0.000000
    14  C    0.000000   0.000000
    15  H    0.000000   0.000000
    16  C    0.000000   0.000000
    17  H    0.000000   0.000000
    18  C    0.000000   0.000000
    19  H    0.000000   0.000000
    20  H    0.000000   0.000000
    21  N    0.000000   0.000000
    22  O    0.000000   0.000000
    23  O    0.000000   0.000000
    24  N    0.319567   0.319484
    25  H    0.402124  -0.029642
    26  H   -0.029642   0.402222
 Mulliken charges:
               1
     1  C   -0.183678
     2  C   -0.180333
     3  C    0.071404
     4  C   -0.180567
     5  C   -0.183951
     6  C    0.319122
     7  H    0.130052
     8  H    0.142296
     9  H    0.142492
    10  H    0.130587
    11  C    0.109144
    12  C   -0.193955
    13  C   -0.193997
    14  C   -0.155444
    15  H    0.151287
    16  C   -0.155447
    17  H    0.152460
    18  C    0.259360
    19  H    0.187754
    20  H    0.187981
    21  N    0.378394
    22  O   -0.398786
    23  O   -0.398625
    24  N   -0.793559
    25  H    0.327979
    26  H    0.328031
 Sum of Mulliken charges =   0.00000
 Mulliken charges with hydrogens summed into heavy atoms:
               1
     1  C   -0.053626
     2  C   -0.038038
     3  C    0.071404
     4  C   -0.038075
     5  C   -0.053365
     6  C    0.319122
    11  C    0.109144
    12  C   -0.042669
    13  C   -0.041537
    14  C    0.032311
    16  C    0.032534
    18  C    0.259360
    21  N    0.378394
    22  O   -0.398786
    23  O   -0.398625
    24  N   -0.137550
 Electronic spatial extent (au):  <R**2>=           5327.5756
 Charge=              0.0000 electrons
 Dipole moment (field-independent basis, Debye):
    X=              7.5741    Y=              0.3463    Z=              1.0111  Tot=              7.6492
 Quadrupole moment (field-independent basis, Debye-Ang):
   XX=            -98.2801   YY=            -82.9464   ZZ=            -93.7012
   XY=              2.3019   XZ=              6.6177   YZ=             -2.0065
 Traceless Quadrupole moment (field-independent basis, Debye-Ang):
   XX=             -6.6375   YY=              8.6962   ZZ=             -2.0587
   XY=              2.3019   XZ=              6.6177   YZ=             -2.0065
 Octapole moment (field-independent basis, Debye-Ang**2):
  XXX=            301.4184  YYY=              0.5962  ZZZ=              1.0426  XYY=             13.8463
  XXY=             14.3615  XXZ=             41.4074  XZZ=            -20.7381  YZZ=             -0.1195
  YYZ=              0.5065  XYZ=             -9.7623
 Hexadecapole moment (field-independent basis, Debye-Ang**3):
 XXXX=          -5951.9630 YYYY=           -587.8197 ZZZZ=           -146.0634 XXXY=             91.0812
 XXXZ=            263.3441 YYYX=              4.3775 YYYZ=              0.2935 ZZZX=              6.1754
 ZZZY=              1.8113 XXYY=          -1065.6217 XXZZ=          -1049.8818 YYZZ=           -128.6738
 XXYZ=            -66.6164 YYXZ=              3.6471 ZZXY=             -0.7926
 N-N= 9.673008898109D+02 E-N=-3.616278270734D+03  KE= 7.161595241614D+02
 No NMR shielding tensors so no spin-rotation constants.
 Leave Link  601 at Sat Oct 31 23:06:28 2020, MaxMem=   655360000 cpu:               0.0 elap:               0.4
 (Enter D:\study\G16W\l607.exe)
 ******************************Gaussian NBO Version 3.1******************************
             N A T U R A L   A T O M I C   O R B I T A L   A N D
          N A T U R A L   B O N D   O R B I T A L   A N A L Y S I S
 ******************************Gaussian NBO Version 3.1******************************

       /RESON  / : Allow strongly delocalized NBO set
       /ARCHIVE/ : Write the archive file to LFN 47
       /FILE   / : Set to C:\D-PI-A                                           

 Analyzing the SCF density

 Job title: b3lyp/6-31g(d) opted                                            

 Storage needed:    205114 in NPA,    271871 in NBO ( 655356412 available)


 NATURAL POPULATIONS:  Natural atomic orbital occupancies 
                                                          
   NAO  Atom  No  lang   Type(AO)    Occupancy      Energy
 ----------------------------------------------------------
     1    C    1  S      Cor( 1S)     1.99904     -10.11963
     2    C    1  S      Val( 2S)     0.94311      -0.16753
     3    C    1  S      Ryd( 3S)     0.00068       1.33693
     4    C    1  S      Ryd( 4S)     0.00003       4.01904
     5    C    1  px     Val( 2p)     1.10493      -0.06054
     6    C    1  px     Ryd( 3p)     0.00451       0.87934
     7    C    1  py     Val( 2p)     1.14452      -0.07542
     8    C    1  py     Ryd( 3p)     0.00409       1.04974
     9    C    1  pz     Val( 2p)     1.07902      -0.11218
    10    C    1  pz     Ryd( 3p)     0.00127       0.72860
    11    C    1  dxy    Ryd( 3d)     0.00081       2.40108
    12    C    1  dxz    Ryd( 3d)     0.00050       2.03811
    13    C    1  dyz    Ryd( 3d)     0.00047       2.08692
    14    C    1  dx2y2  Ryd( 3d)     0.00056       2.43667
    15    C    1  dz2    Ryd( 3d)     0.00040       2.26075

    16    C    2  S      Cor( 1S)     1.99908     -10.12441
    17    C    2  S      Val( 2S)     0.94062      -0.16247
    18    C    2  S      Ryd( 3S)     0.00065       1.32142
    19    C    2  S      Ryd( 4S)     0.00004       4.04680
    20    C    2  px     Val( 2p)     1.09953      -0.05682
    21    C    2  px     Ryd( 3p)     0.00382       0.92573
    22    C    2  py     Val( 2p)     1.13862      -0.07187
    23    C    2  py     Ryd( 3p)     0.00452       1.03579
    24    C    2  pz     Val( 2p)     1.00097      -0.10303
    25    C    2  pz     Ryd( 3p)     0.00102       0.74965
    26    C    2  dxy    Ryd( 3d)     0.00081       2.40179
    27    C    2  dxz    Ryd( 3d)     0.00069       2.04095
    28    C    2  dyz    Ryd( 3d)     0.00048       2.10713
    29    C    2  dx2y2  Ryd( 3d)     0.00063       2.46704
    30    C    2  dz2    Ryd( 3d)     0.00039       2.25199

    31    C    3  S      Cor( 1S)     1.99902     -10.12028
    32    C    3  S      Val( 2S)     0.85713      -0.12020
    33    C    3  S      Ryd( 3S)     0.00046       1.18064
    34    C    3  S      Ryd( 4S)     0.00005       4.18475
    35    C    3  px     Val( 2p)     1.06585      -0.05047
    36    C    3  px     Ryd( 3p)     0.00479       1.27549
    37    C    3  py     Val( 2p)     1.09611      -0.06954
    38    C    3  py     Ryd( 3p)     0.00556       1.07035
    39    C    3  pz     Val( 2p)     1.07353      -0.10364
    40    C    3  pz     Ryd( 3p)     0.00160       0.78265
    41    C    3  dxy    Ryd( 3d)     0.00066       2.55284
    42    C    3  dxz    Ryd( 3d)     0.00052       2.10361
    43    C    3  dyz    Ryd( 3d)     0.00046       2.18093
    44    C    3  dx2y2  Ryd( 3d)     0.00071       2.49005
    45    C    3  dz2    Ryd( 3d)     0.00041       2.30107

    46    C    4  S      Cor( 1S)     1.99908     -10.12439
    47    C    4  S      Val( 2S)     0.94062      -0.16244
    48    C    4  S      Ryd( 3S)     0.00065       1.32032
    49    C    4  S      Ryd( 4S)     0.00004       4.04815
    50    C    4  px     Val( 2p)     1.09946      -0.05677
    51    C    4  px     Ryd( 3p)     0.00382       0.92540
    52    C    4  py     Val( 2p)     1.13917      -0.07183
    53    C    4  py     Ryd( 3p)     0.00454       1.03663
    54    C    4  pz     Val( 2p)     1.00050      -0.10303
    55    C    4  pz     Ryd( 3p)     0.00100       0.75000
    56    C    4  dxy    Ryd( 3d)     0.00081       2.40230
    57    C    4  dxz    Ryd( 3d)     0.00069       2.04038
    58    C    4  dyz    Ryd( 3d)     0.00047       2.10709
    59    C    4  dx2y2  Ryd( 3d)     0.00063       2.46742
    60    C    4  dz2    Ryd( 3d)     0.00039       2.25152

    61    C    5  S      Cor( 1S)     1.99904     -10.11957
    62    C    5  S      Val( 2S)     0.94318      -0.16751
    63    C    5  S      Ryd( 3S)     0.00068       1.33556
    64    C    5  S      Ryd( 4S)     0.00003       4.02052
    65    C    5  px     Val( 2p)     1.10503      -0.06047
    66    C    5  px     Ryd( 3p)     0.00451       0.87966
    67    C    5  py     Val( 2p)     1.14449      -0.07596
    68    C    5  py     Ryd( 3p)     0.00414       1.04218
    69    C    5  pz     Val( 2p)     1.07880      -0.11155
    70    C    5  pz     Ryd( 3p)     0.00122       0.73653
    71    C    5  dxy    Ryd( 3d)     0.00080       2.39865
    72    C    5  dxz    Ryd( 3d)     0.00051       2.04019
    73    C    5  dyz    Ryd( 3d)     0.00045       2.09806
    74    C    5  dx2y2  Ryd( 3d)     0.00055       2.43209
    75    C    5  dz2    Ryd( 3d)     0.00042       2.25393

    76    C    6  S      Cor( 1S)     1.99900     -10.17175
    77    C    6  S      Val( 2S)     0.83901      -0.13291
    78    C    6  S      Ryd( 3S)     0.00118       1.08906
    79    C    6  S      Ryd( 4S)     0.00009       4.12466
    80    C    6  px     Val( 2p)     0.91032      -0.03316
    81    C    6  px     Ryd( 3p)     0.00596       1.06151
    82    C    6  py     Val( 2p)     1.08278      -0.07144
    83    C    6  py     Ryd( 3p)     0.00422       0.94266
    84    C    6  pz     Val( 2p)     0.96242      -0.10214
    85    C    6  pz     Ryd( 3p)     0.00136       0.74724
    86    C    6  dxy    Ryd( 3d)     0.00097       2.47341
    87    C    6  dxz    Ryd( 3d)     0.00183       2.05996
    88    C    6  dyz    Ryd( 3d)     0.00053       2.15429
    89    C    6  dx2y2  Ryd( 3d)     0.00115       2.43863
    90    C    6  dz2    Ryd( 3d)     0.00052       2.26276

    91    H    7  S      Val( 1S)     0.76265       0.09333
    92    H    7  S      Ryd( 2S)     0.00085       0.61927

    93    H    8  S      Val( 1S)     0.75836       0.10107
    94    H    8  S      Ryd( 2S)     0.00085       0.65148

    95    H    9  S      Val( 1S)     0.75830       0.10117
    96    H    9  S      Ryd( 2S)     0.00084       0.65169

    97    H   10  S      Val( 1S)     0.76235       0.09368
    98    H   10  S      Ryd( 2S)     0.00085       0.61890

    99    C   11  S      Cor( 1S)     1.99904     -10.14114
   100    C   11  S      Val( 2S)     0.87019      -0.13861
   101    C   11  S      Ryd( 3S)     0.00046       1.15960
   102    C   11  S      Ryd( 4S)     0.00005       4.19149
   103    C   11  px     Val( 2p)     1.07722      -0.05998
   104    C   11  px     Ryd( 3p)     0.00502       1.26049
   105    C   11  py     Val( 2p)     1.08744      -0.07532
   106    C   11  py     Ryd( 3p)     0.00537       1.07416
   107    C   11  pz     Val( 2p)     0.95711      -0.10568
   108    C   11  pz     Ryd( 3p)     0.00118       0.76216
   109    C   11  dxy    Ryd( 3d)     0.00074       2.56233
   110    C   11  dxz    Ryd( 3d)     0.00074       2.06494
   111    C   11  dyz    Ryd( 3d)     0.00050       2.09379
   112    C   11  dx2y2  Ryd( 3d)     0.00072       2.50015
   113    C   11  dz2    Ryd( 3d)     0.00038       2.33758

   114    C   12  S      Cor( 1S)     1.99908     -10.13153
   115    C   12  S      Val( 2S)     0.94411      -0.17362
   116    C   12  S      Ryd( 3S)     0.00068       1.28096
   117    C   12  S      Ryd( 4S)     0.00005       4.08000
   118    C   12  px     Val( 2p)     1.09465      -0.06507
   119    C   12  px     Ryd( 3p)     0.00383       0.92974
   120    C   12  py     Val( 2p)     1.15577      -0.08035
   121    C   12  py     Ryd( 3p)     0.00477       1.05399
   122    C   12  pz     Val( 2p)     1.02098      -0.11774
   123    C   12  pz     Ryd( 3p)     0.00087       0.72097
   124    C   12  dxy    Ryd( 3d)     0.00081       2.41886
   125    C   12  dxz    Ryd( 3d)     0.00051       2.00527
   126    C   12  dyz    Ryd( 3d)     0.00042       2.02575
   127    C   12  dx2y2  Ryd( 3d)     0.00067       2.48162
   128    C   12  dz2    Ryd( 3d)     0.00040       2.30249

   129    C   13  S      Cor( 1S)     1.99908     -10.13141
   130    C   13  S      Val( 2S)     0.94424      -0.17355
   131    C   13  S      Ryd( 3S)     0.00068       1.28161
   132    C   13  S      Ryd( 4S)     0.00005       4.07973
   133    C   13  px     Val( 2p)     1.09445      -0.06487
   134    C   13  px     Ryd( 3p)     0.00384       0.92974
   135    C   13  py     Val( 2p)     1.15596      -0.08027
   136    C   13  py     Ryd( 3p)     0.00477       1.05407
   137    C   13  pz     Val( 2p)     1.02064      -0.11753
   138    C   13  pz     Ryd( 3p)     0.00087       0.72162
   139    C   13  dxy    Ryd( 3d)     0.00081       2.41897
   140    C   13  dxz    Ryd( 3d)     0.00051       2.00557
   141    C   13  dyz    Ryd( 3d)     0.00042       2.02588
   142    C   13  dx2y2  Ryd( 3d)     0.00067       2.48197
   143    C   13  dz2    Ryd( 3d)     0.00040       2.30230

   144    C   14  S      Cor( 1S)     1.99904     -10.13608
   145    C   14  S      Val( 2S)     0.95546      -0.18197
   146    C   14  S      Ryd( 3S)     0.00079       1.34244
   147    C   14  S      Ryd( 4S)     0.00004       4.01205
   148    C   14  px     Val( 2p)     1.11063      -0.06991
   149    C   14  px     Ryd( 3p)     0.00552       0.92322
   150    C   14  py     Val( 2p)     1.16145      -0.08724
   151    C   14  py     Ryd( 3p)     0.00484       1.04059
   152    C   14  pz     Val( 2p)     0.96266      -0.11472
   153    C   14  pz     Ryd( 3p)     0.00094       0.69749
   154    C   14  dxy    Ryd( 3d)     0.00086       2.43627
   155    C   14  dxz    Ryd( 3d)     0.00060       1.99702
   156    C   14  dyz    Ryd( 3d)     0.00046       2.01276
   157    C   14  dx2y2  Ryd( 3d)     0.00055       2.46835
   158    C   14  dz2    Ryd( 3d)     0.00042       2.31800

   159    H   15  S      Val( 1S)     0.75219       0.10122
   160    H   15  S      Ryd( 2S)     0.00080       0.64855

   161    C   16  S      Cor( 1S)     1.99904     -10.13603
   162    C   16  S      Val( 2S)     0.95551      -0.18193
   163    C   16  S      Ryd( 3S)     0.00079       1.34276
   164    C   16  S      Ryd( 4S)     0.00004       4.01198
   165    C   16  px     Val( 2p)     1.11086      -0.06987
   166    C   16  px     Ryd( 3p)     0.00553       0.92376
   167    C   16  py     Val( 2p)     1.16133      -0.08714
   168    C   16  py     Ryd( 3p)     0.00483       1.04046
   169    C   16  pz     Val( 2p)     0.96234      -0.11458
   170    C   16  pz     Ryd( 3p)     0.00094       0.69739
   171    C   16  dxy    Ryd( 3d)     0.00086       2.43610
   172    C   16  dxz    Ryd( 3d)     0.00060       1.99712
   173    C   16  dyz    Ryd( 3d)     0.00046       2.01326
   174    C   16  dx2y2  Ryd( 3d)     0.00055       2.46832
   175    C   16  dz2    Ryd( 3d)     0.00042       2.31804

   176    H   17  S      Val( 1S)     0.75164       0.10197
   177    H   17  S      Ryd( 2S)     0.00080       0.64893

   178    C   18  S      Cor( 1S)     1.99875     -10.17839
   179    C   18  S      Val( 2S)     0.87101      -0.16521
   180    C   18  S      Ryd( 3S)     0.00093       1.06917
   181    C   18  S      Ryd( 4S)     0.00006       4.13288
   182    C   18  px     Val( 2p)     0.86079      -0.05894
   183    C   18  px     Ryd( 3p)     0.00558       1.06474
   184    C   18  py     Val( 2p)     1.11243      -0.09016
   185    C   18  py     Ryd( 3p)     0.00783       1.14025
   186    C   18  pz     Val( 2p)     1.09550      -0.14167
   187    C   18  pz     Ryd( 3p)     0.00154       0.74345
   188    C   18  dxy    Ryd( 3d)     0.00055       2.54721
   189    C   18  dxz    Ryd( 3d)     0.00037       1.99530
   190    C   18  dyz    Ryd( 3d)     0.00065       2.08553
   191    C   18  dx2y2  Ryd( 3d)     0.00161       2.46142
   192    C   18  dz2    Ryd( 3d)     0.00055       2.33341

   193    H   19  S      Val( 1S)     0.72511       0.11871
   194    H   19  S      Ryd( 2S)     0.00126       0.63873

   195    H   20  S      Val( 1S)     0.72500       0.11892
   196    H   20  S      Ryd( 2S)     0.00126       0.63887

   197    N   21  S      Cor( 1S)     1.99954     -14.49666
   198    N   21  S      Val( 2S)     1.08772      -0.53984
   199    N   21  S      Ryd( 3S)     0.00497       1.59912
   200    N   21  S      Ryd( 4S)     0.00045       3.53282
   201    N   21  px     Val( 2p)     1.19025      -0.29551
   202    N   21  px     Ryd( 3p)     0.01105       0.98891
   203    N   21  py     Val( 2p)     0.99907      -0.25398
   204    N   21  py     Ryd( 3p)     0.01663       1.19929
   205    N   21  pz     Val( 2p)     1.14264      -0.31602
   206    N   21  pz     Ryd( 3p)     0.00191       0.82388
   207    N   21  dxy    Ryd( 3d)     0.00375       2.52188
   208    N   21  dxz    Ryd( 3d)     0.00156       1.96508
   209    N   21  dyz    Ryd( 3d)     0.00540       2.16229
   210    N   21  dx2y2  Ryd( 3d)     0.00534       2.54103
   211    N   21  dz2    Ryd( 3d)     0.00134       2.34189

   212    O   22  S      Cor( 1S)     1.99983     -19.03751
   213    O   22  S      Val( 2S)     1.74676      -0.94485
   214    O   22  S      Ryd( 3S)     0.00241       1.61386
   215    O   22  S      Ryd( 4S)     0.00011       3.33811
   216    O   22  px     Val( 2p)     1.77295      -0.33057
   217    O   22  px     Ryd( 3p)     0.00176       1.17812
   218    O   22  py     Val( 2p)     1.41387      -0.28926
   219    O   22  py     Ryd( 3p)     0.00143       1.16792
   220    O   22  pz     Val( 2p)     1.44811      -0.29778
   221    O   22  pz     Ryd( 3p)     0.00182       1.04552
   222    O   22  dxy    Ryd( 3d)     0.00153       2.63793
   223    O   22  dxz    Ryd( 3d)     0.00102       1.98674
   224    O   22  dyz    Ryd( 3d)     0.00214       2.18704
   225    O   22  dx2y2  Ryd( 3d)     0.00195       2.46500
   226    O   22  dz2    Ryd( 3d)     0.00067       2.17008

   227    O   23  S      Cor( 1S)     1.99983     -19.03750
   228    O   23  S      Val( 2S)     1.74674      -0.94484
   229    O   23  S      Ryd( 3S)     0.00241       1.61385
   230    O   23  S      Ryd( 4S)     0.00011       3.33827
   231    O   23  px     Val( 2p)     1.77222      -0.33048
   232    O   23  px     Ryd( 3p)     0.00175       1.17814
   233    O   23  py     Val( 2p)     1.41417      -0.28929
   234    O   23  py     Ryd( 3p)     0.00143       1.16785
   235    O   23  pz     Val( 2p)     1.44835      -0.29780
   236    O   23  pz     Ryd( 3p)     0.00182       1.04552
   237    O   23  dxy    Ryd( 3d)     0.00153       2.63916
   238    O   23  dxz    Ryd( 3d)     0.00102       1.98647
   239    O   23  dyz    Ryd( 3d)     0.00214       2.18591
   240    O   23  dx2y2  Ryd( 3d)     0.00196       2.46484
   241    O   23  dz2    Ryd( 3d)     0.00067       2.17053

   242    N   24  S      Cor( 1S)     1.99951     -14.27029
   243    N   24  S      Val( 2S)     1.34015      -0.58429
   244    N   24  S      Ryd( 3S)     0.00009       1.55904
   245    N   24  S      Ryd( 4S)     0.00001       3.76586
   246    N   24  px     Val( 2p)     1.31352      -0.23509
   247    N   24  px     Ryd( 3p)     0.00240       0.83646
   248    N   24  py     Val( 2p)     1.44218      -0.25129
   249    N   24  py     Ryd( 3p)     0.00206       1.07392
   250    N   24  pz     Val( 2p)     1.73353      -0.29613
   251    N   24  pz     Ryd( 3p)     0.00353       0.84664
   252    N   24  dxy    Ryd( 3d)     0.00053       2.26427
   253    N   24  dxz    Ryd( 3d)     0.00090       2.02329
   254    N   24  dyz    Ryd( 3d)     0.00097       2.09920
   255    N   24  dx2y2  Ryd( 3d)     0.00058       2.42107
   256    N   24  dz2    Ryd( 3d)     0.00102       2.17880

   257    H   25  S      Val( 1S)     0.59614       0.14853
   258    H   25  S      Ryd( 2S)     0.00109       0.62736

   259    H   26  S      Val( 1S)     0.59608       0.14853
   260    H   26  S      Ryd( 2S)     0.00109       0.62715

 WARNING:  1 low occupancy (<1.9990e) core orbital  found on  C   18


 Summary of Natural Population Analysis:                  
                                                          
                                       Natural Population 
                Natural  -----------------------------------------------
    Atom  No    Charge         Core      Valence    Rydberg      Total
 -----------------------------------------------------------------------
      C    1   -0.28394      1.99904     4.27158    0.01331     6.28394
      C    2   -0.19186      1.99908     4.17974    0.01303     6.19186
      C    3   -0.10685      1.99902     4.09261    0.01521     6.10685
      C    4   -0.19188      1.99908     4.17976    0.01304     6.19188
      C    5   -0.28385      1.99904     4.27149    0.01332     6.28385
      C    6    0.18864      1.99900     3.79454    0.01781     5.81136
      H    7    0.23651      0.00000     0.76265    0.00085     0.76349
      H    8    0.24079      0.00000     0.75836    0.00085     0.75921
      H    9    0.24085      0.00000     0.75830    0.00084     0.75915
      H   10    0.23680      0.00000     0.76235    0.00085     0.76320
      C   11   -0.00617      1.99904     3.99196    0.01517     6.00617
      C   12   -0.22759      1.99908     4.21550    0.01300     6.22759
      C   13   -0.22740      1.99908     4.21530    0.01302     6.22740
      C   14   -0.20425      1.99904     4.19019    0.01502     6.20425
      H   15    0.24700      0.00000     0.75219    0.00080     0.75300
      C   16   -0.20411      1.99904     4.19005    0.01502     6.20411
      H   17    0.24756      0.00000     0.75164    0.00080     0.75244
      C   18    0.04187      1.99875     3.93972    0.01966     5.95813
      H   19    0.27363      0.00000     0.72511    0.00126     0.72637
      H   20    0.27374      0.00000     0.72500    0.00126     0.72626
      N   21    0.52838      1.99954     4.41968    0.05240     6.47162
      O   22   -0.39634      1.99983     6.38168    0.01483     8.39634
      O   23   -0.39615      1.99983     6.38149    0.01484     8.39615
      N   24   -0.84099      1.99951     5.82938    0.01210     7.84099
      H   25    0.40276      0.00000     0.59614    0.00109     0.59724
      H   26    0.40283      0.00000     0.59608    0.00109     0.59717
 =======================================================================
   * Total *    0.00000     31.98700    79.73249    0.28051   112.00000

                                 Natural Population      
 --------------------------------------------------------
   Core                      31.98700 ( 99.9594% of  32)
   Valence                   79.73249 ( 99.6656% of  80)
   Natural Minimal Basis    111.71949 ( 99.7495% of 112)
   Natural Rydberg Basis      0.28051 (  0.2505% of 112)
 --------------------------------------------------------

    Atom  No          Natural Electron Configuration
 ----------------------------------------------------------------------------
      C    1      [core]2S( 0.94)2p( 3.33)3p( 0.01)
      C    2      [core]2S( 0.94)2p( 3.24)3p( 0.01)
      C    3      [core]2S( 0.86)2p( 3.24)3p( 0.01)
      C    4      [core]2S( 0.94)2p( 3.24)3p( 0.01)
      C    5      [core]2S( 0.94)2p( 3.33)3p( 0.01)
      C    6      [core]2S( 0.84)2p( 2.96)3p( 0.01)3d( 0.01)
      H    7            1S( 0.76)
      H    8            1S( 0.76)
      H    9            1S( 0.76)
      H   10            1S( 0.76)
      C   11      [core]2S( 0.87)2p( 3.12)3p( 0.01)
      C   12      [core]2S( 0.94)2p( 3.27)3p( 0.01)
      C   13      [core]2S( 0.94)2p( 3.27)3p( 0.01)
      C   14      [core]2S( 0.96)2p( 3.23)3p( 0.01)
      H   15            1S( 0.75)
      C   16      [core]2S( 0.96)2p( 3.23)3p( 0.01)
      H   17            1S( 0.75)
      C   18      [core]2S( 0.87)2p( 3.07)3p( 0.01)
      H   19            1S( 0.73)
      H   20            1S( 0.73)
      N   21      [core]2S( 1.09)2p( 3.33)3p( 0.03)3d( 0.02)
      O   22      [core]2S( 1.75)2p( 4.63)3p( 0.01)3d( 0.01)
      O   23      [core]2S( 1.75)2p( 4.63)3p( 0.01)3d( 0.01)
      N   24      [core]2S( 1.34)2p( 4.49)3p( 0.01)
      H   25            1S( 0.60)
      H   26            1S( 0.60)


 NATURAL BOND ORBITAL ANALYSIS:

                       Occupancies       Lewis Structure    Low   High
           Occ.    -------------------  -----------------   occ   occ
  Cycle   Thresh.   Lewis   Non-Lewis     CR  BD  3C  LP    (L)   (NL)   Dev
 =============================================================================
   1(1)    1.90   104.91464   7.08536     16  29   0  11     7      8    0.50
   2(2)    1.90   104.91448   7.08552     16  29   0  11     7      8    0.50
   3(3)    1.90   104.91464   7.08536     16  29   0  11     7      8    0.50
   4(1)    1.80   104.84399   7.15601     16  28   0  12     7      7    0.50
   5(2)    1.80   104.84384   7.15616     16  28   0  12     7      7    0.50
   6(3)    1.80   104.84399   7.15601     16  28   0  12     7      7    0.50
   7(1)    1.70   106.13615   5.86385     16  30   0  10     5      7    0.50
   8(2)    1.70   106.13599   5.86401     16  30   0  10     5      7    0.50
   9(3)    1.70   106.13615   5.86385     16  30   0  10     5      7    0.50
  10(1)    1.60   108.42264   3.57736     16  34   0   6     1      7    0.50
  11(2)    1.60   108.42249   3.57751     16  34   0   6     1      7    0.50
  12(3)    1.60   108.42264   3.57736     16  34   0   6     1      7    0.50
  13(1)    1.50   108.42264   3.57736     16  34   0   6     1      7    0.50
  14(2)    1.50   108.42249   3.57751     16  34   0   6     1      7    0.50
  15(3)    1.50   108.42264   3.57736     16  34   0   6     1      7    0.50
  16(1)    1.60   108.42264   3.57736     16  34   0   6     1      7    0.50
 -----------------------------------------------------------------------------

 Structure accepted: RESONANCE keyword permits strongly delocalized structure

 WARNING:  1 low occupancy (<1.9990e) core orbital  found on  C   18

 --------------------------------------------------------
   Core                     31.98702 ( 99.959% of  32)
   Valence Lewis            76.43562 ( 95.545% of  80)
  ==================       ============================
   Total Lewis             108.42264 ( 96.806% of 112)
  -----------------------------------------------------
   Valence non-Lewis         3.37154 (  3.010% of 112)
   Rydberg non-Lewis         0.20582 (  0.184% of 112)
  ==================       ============================
   Total non-Lewis           3.57736 (  3.194% of 112)
 --------------------------------------------------------


       (Occupancy)   Bond orbital/ Coefficients/ Hybrids
 ---------------------------------------------------------------------------------
     1. (1.97769) BD ( 1) C   1 - C   2  
                ( 50.03%)   0.7073* C   1 s( 36.12%)p 1.77( 63.84%)d 0.00(  0.04%)
                                           -0.0001  0.6009 -0.0116 -0.0002 -0.7981
                                           -0.0172 -0.0069 -0.0299 -0.0025  0.0109
                                           -0.0029  0.0011 -0.0010  0.0164 -0.0109
                ( 49.97%)   0.7069* C   2 s( 35.73%)p 1.80( 64.23%)d 0.00(  0.04%)
                                            0.0000  0.5976 -0.0122 -0.0004  0.8005
                                            0.0162 -0.0092 -0.0310  0.0014  0.0102
                                            0.0022 -0.0007 -0.0007  0.0168 -0.0111
     2. (1.71549) BD ( 2) C   1 - C   2  
                ( 53.39%)   0.7307* C   1 s(  0.00%)p 1.00( 99.96%)d 0.00(  0.04%)
                                            0.0000 -0.0004  0.0009  0.0003 -0.0061
                                           -0.0016  0.3419 -0.0033  0.9395 -0.0083
                                           -0.0061 -0.0157  0.0090 -0.0038 -0.0060
                ( 46.61%)   0.6827* C   2 s(  0.00%)p 1.00( 99.95%)d 0.00(  0.05%)
                                            0.0000  0.0011 -0.0009 -0.0001  0.0015
                                           -0.0027  0.3529 -0.0030  0.9354 -0.0049
                                            0.0069  0.0196  0.0063 -0.0032 -0.0045
     3. (1.97445) BD ( 1) C   1 - C   6  
                ( 49.07%)   0.7005* C   1 s( 34.28%)p 1.92( 65.67%)d 0.00(  0.05%)
                                            0.0000  0.5855 -0.0050  0.0021  0.4355
                                            0.0278  0.6427 -0.0024 -0.2307  0.0010
                                            0.0144 -0.0049 -0.0092 -0.0068 -0.0094
                ( 50.93%)   0.7137* C   6 s( 35.60%)p 1.81( 64.36%)d 0.00(  0.04%)
                                           -0.0002  0.5966  0.0083  0.0011 -0.3788
                                            0.0219 -0.6657 -0.0039  0.2375  0.0006
                                            0.0126 -0.0046 -0.0084 -0.0079 -0.0075
     4. (1.98126) BD ( 1) C   1 - H   7  
                ( 61.87%)   0.7865* C   1 s( 29.55%)p 2.38( 70.39%)d 0.00(  0.06%)
                                            0.0003 -0.5435 -0.0130  0.0015 -0.4143
                                            0.0140  0.6845 -0.0056 -0.2520  0.0034
                                            0.0160 -0.0062  0.0104  0.0076  0.0094
                ( 38.13%)   0.6175* H   7 s(100.00%)
                                           -1.0000 -0.0013
     5. (1.97273) BD ( 1) C   2 - C   3  
                ( 49.03%)   0.7002* C   2 s( 34.98%)p 1.86( 64.97%)d 0.00(  0.04%)
                                            0.0000  0.5914 -0.0035  0.0027 -0.4336
                                           -0.0185  0.6355 -0.0023 -0.2398  0.0027
                                           -0.0135  0.0054 -0.0094 -0.0065 -0.0087
                ( 50.97%)   0.7139* C   3 s( 33.81%)p 1.96( 66.15%)d 0.00(  0.04%)
                                           -0.0002  0.5815 -0.0018  0.0003  0.4017
                                           -0.0061 -0.6711 -0.0106  0.2226  0.0079
                                           -0.0133  0.0038 -0.0076 -0.0062 -0.0087
     6. (1.98125) BD ( 1) C   2 - H   8  
                ( 62.09%)   0.7880* C   2 s( 29.24%)p 2.42( 70.70%)d 0.00(  0.06%)
                                            0.0003 -0.5406 -0.0122  0.0018  0.4116
                                           -0.0142  0.6858 -0.0086 -0.2588  0.0006
                                           -0.0161  0.0062  0.0113  0.0087  0.0089
                ( 37.91%)   0.6157* H   8 s(100.00%)
                                           -1.0000 -0.0013
     7. (1.97274) BD ( 1) C   3 - C   4  
                ( 50.96%)   0.7139* C   3 s( 33.82%)p 1.96( 66.14%)d 0.00(  0.04%)
                                           -0.0002  0.5816 -0.0018  0.0003  0.4022
                                           -0.0061  0.6752  0.0104 -0.2086 -0.0081
[...]
    31. BD (   1) N  21 - O  23          1.99591    -1.15182  173(v),250(v),185(g),255(g)
    32. BD (   2) N  21 - O  23          1.98738    -0.51001  53(v),258(g),253(v),196(v)
                                                    175(v)
    33. BD (   1) N  24 - H  25          1.98936    -0.72007  238(v),107(v),239(v)
    34. BD (   1) N  24 - H  26          1.98927    -0.71999  229(v),107(v),239(v),110(v)
    35. CR (   1) C   1                  1.99905   -10.12001  107(v),68(v),231(v),238(v)
                                                    241(v),232(v)
    36. CR (   1) C   2                  1.99909   -10.12471  58(v),77(v),235(v),229(v)
                                                    233(v),230(v),78(v)
    37. CR (   1) C   3                  1.99902   -10.12060  88(v),68(v),122(v),242(v)
                                                    243(v),227(v),236(v),237(v)
                                                    232(v)
    38. CR (   1) C   4                  1.99909   -10.12469  98(v),77(v),235(v),238(v)
                                                    231(v),240(v),78(v),101(v)
    39. CR (   1) C   5                  1.99905   -10.11996  88(v),107(v),233(v),229(v)
                                                    241(v),108(v),237(v)
    40. CR (   1) C   6                  1.99900   -10.17218  58(v),98(v),227(v),236(v)
                                                    230(v),240(v),217(v),229(g)
                                                    238(g),260(v),259(v)
    41. CR (   1) C  11                  1.99904   -10.14145  142(v),132(v),78(v),245(v)
                                                    248(v),233(v),231(v),247(v)
                                                    249(v)
    42. CR (   1) C  12                  1.99908   -10.13182  121(v),151(v),235(v),243(v)
                                                    250(v),251(v),152(v),122(v)
    43. CR (   1) C  13                  1.99908   -10.13170  121(v),162(v),235(v),242(v)
                                                    252(v),254(v),163(v),122(v)
    44. CR (   1) C  14                  1.99904   -10.13648  173(v),132(v),252(v),255(v)
                                                    242(v),247(v),183(v)
    45. CR (   1) C  16                  1.99904   -10.13643  173(v),142(v),250(v),255(v)
                                                    243(v),249(v),184(v)
    46. CR (   1) C  18                  1.99875   -10.17889  163(v),152(v),255(g),250(g)
                                                    252(g),186(v),251(v),254(v)
                                                    245(v),248(v),256(v),257(v)
    47. CR (   1) N  21                  1.99954   -14.49664  174(v)
    48. CR (   1) O  22                  1.99982   -19.03856  185(v),255(v),186(v),257(v)
    49. CR (   1) O  23                  1.99982   -19.03856  185(v),255(v),186(v),256(v)
    50. CR (   1) N  24                  1.99951   -14.27034  108(v),112(v),229(v),238(v)
    51. LP (   1) O  22                  1.98186    -0.85804  185(v),255(v),257(v),186(v)
                                                    188(v)
    52. LP (   2) O  22                  1.90461    -0.34790  257(v),255(v),186(v),188(v)
                                                    185(v),252(r),189(v),251(r)
                                                    245(r)
    53. LP (   3) O  22                  1.45395    -0.29891  258(v),187(v),196(g),193(v)
                                                    190(v),202(g)
    54. LP (   1) O  23                  1.98186    -0.85803  185(v),255(v),256(v),186(v)
                                                    188(v)
    55. LP (   2) O  23                  1.90460    -0.34789  256(v),255(v),186(v),188(v)
                                                    185(v),250(r),189(v),254(r)
                                                    248(r)
    56. LP (   1) N  24                  1.84624    -0.34994  239(v),109(v)
    57. RY*(   1) C   1                  0.00443     1.30355   
    58. RY*(   2) C   1                  0.00299     0.80147   
    59. RY*(   3) C   1                  0.00070     1.03974   
    60. RY*(   4) C   1                  0.00048     1.63896   
    61. RY*(   5) C   1                  0.00033     1.28617   
    62. RY*(   6) C   1                  0.00007     2.44464   
    63. RY*(   7) C   1                  0.00002     4.10980   
    64. RY*(   8) C   1                  0.00002     1.99917   
    65. RY*(   9) C   1                  0.00002     2.31726   
    66. RY*(  10) C   1                  0.00002     2.27898   
    67. RY*(   1) C   2                  0.00470     1.31975   
    68. RY*(   2) C   2                  0.00284     0.84511   
    69. RY*(   3) C   2                  0.00088     1.99995   
    70. RY*(   4) C   2                  0.00042     0.78875   
    71. RY*(   5) C   2                  0.00030     1.23764   
    72. RY*(   6) C   2                  0.00009     2.43007   
    73. RY*(   7) C   2                  0.00004     3.37016   
    74. RY*(   8) C   2                  0.00004     2.31856   
    75. RY*(   9) C   2                  0.00001     2.36338   
    76. RY*(  10) C   2                  0.00001     2.65813   
    77. RY*(   1) C   3                  0.00551     1.10556   
    78. RY*(   2) C   3                  0.00504     1.37892   
    79. RY*(   3) C   3                  0.00152     0.91722   
    80. RY*(   4) C   3                  0.00061     1.98431   
    81. RY*(   5) C   3                  0.00035     2.06350   
    82. RY*(   6) C   3                  0.00035     1.26276   
    83. RY*(   7) C   3                  0.00010     2.41542   
    84. RY*(   8) C   3                  0.00007     3.02909   
    85. RY*(   9) C   3                  0.00005     3.29201   
    86. RY*(  10) C   3                  0.00001     2.66650   
    87. RY*(   1) C   4                  0.00470     1.32073   
    88. RY*(   2) C   4                  0.00285     0.84507   
    89. RY*(   3) C   4                  0.00093     1.93452   
    90. RY*(   4) C   4                  0.00041     0.86191   
    91. RY*(   5) C   4                  0.00030     1.23710   
    92. RY*(   6) C   4                  0.00009     2.42189   
    93. RY*(   7) C   4                  0.00004     3.40063   
    94. RY*(   8) C   4                  0.00004     2.31794   
    95. RY*(   9) C   4                  0.00001     2.29402   
    96. RY*(  10) C   4                  0.00001     2.69834   
    97. RY*(   1) C   5                  0.00443     1.30297   
    98. RY*(   2) C   5                  0.00300     0.80179   
    99. RY*(   3) C   5                  0.00064     0.73473   
   100. RY*(   4) C   5                  0.00053     1.98226   
   101. RY*(   5) C   5                  0.00033     1.24752   
   102. RY*(   6) C   5                  0.00007     2.44607   
   103. RY*(   7) C   5                  0.00002     4.10777   
   104. RY*(   8) C   5                  0.00002     1.98576   
   105. RY*(   9) C   5                  0.00002     2.33908   
   106. RY*(  10) C   5                  0.00002     2.27217   
   107. RY*(   1) C   6                  0.00489     1.07381   
   108. RY*(   2) C   6                  0.00458     1.23360   
   109. RY*(   3) C   6                  0.00216     1.90590   
   110. RY*(   4) C   6                  0.00087     1.18439   
   111. RY*(   5) C   6                  0.00073     1.94369   
   112. RY*(   6) C   6                  0.00026     0.99435   
   113. RY*(   7) C   6                  0.00025     2.41701   
   114. RY*(   8) C   6                  0.00011     2.20594   
   115. RY*(   9) C   6                  0.00006     3.76503   
   116. RY*(  10) C   6                  0.00001     2.62166   
   117. RY*(   1) H   7                  0.00085     0.61854   
   118. RY*(   1) H   8                  0.00085     0.65074   
   119. RY*(   1) H   9                  0.00085     0.65096   
   120. RY*(   1) H  10                  0.00085     0.61817   
   121. RY*(   1) C  11                  0.00540     1.10810   
   122. RY*(   2) C  11                  0.00511     1.36371   
   123. RY*(   3) C  11                  0.00117     1.09374   
   124. RY*(   4) C  11                  0.00067     1.96004   
   125. RY*(   5) C  11                  0.00050     1.91171   
   126. RY*(   6) C  11                  0.00033     1.22333   
   127. RY*(   7) C  11                  0.00010     2.35912   
   128. RY*(   8) C  11                  0.00008     3.03397   
   129. RY*(   9) C  11                  0.00005     3.28569   
   130. RY*(  10) C  11                  0.00001     2.66047   
   131. RY*(   1) C  12                  0.00472     1.32683   
   132. RY*(   2) C  12                  0.00271     0.83999   
   133. RY*(   3) C  12                  0.00054     2.01265   
   134. RY*(   4) C  12                  0.00052     0.73956   
   135. RY*(   5) C  12                  0.00035     1.18508   
   136. RY*(   6) C  12                  0.00009     2.45631   
   137. RY*(   7) C  12                  0.00004     3.62110   
   138. RY*(   8) C  12                  0.00004     2.26157   
   139. RY*(   9) C  12                  0.00001     2.35048   
   140. RY*(  10) C  12                  0.00001     2.48903   
   141. RY*(   1) C  13                  0.00472     1.32696   
   142. RY*(   2) C  13                  0.00272     0.84006   
   143. RY*(   3) C  13                  0.00060     1.48029   
   144. RY*(   4) C  13                  0.00048     1.26937   
   145. RY*(   5) C  13                  0.00035     1.18808   
   146. RY*(   6) C  13                  0.00009     2.45691   
   147. RY*(   7) C  13                  0.00004     3.61515   
   148. RY*(   8) C  13                  0.00004     2.26284   
   149. RY*(   9) C  13                  0.00001     2.23457   
   150. RY*(  10) C  13                  0.00001     2.61016   
   151. RY*(   1) C  14                  0.00508     1.17116   
   152. RY*(   2) C  14                  0.00394     0.91767   
   153. RY*(   3) C  14                  0.00084     1.50949   
   154. RY*(   4) C  14                  0.00051     1.19762   
   155. RY*(   5) C  14                  0.00038     1.29414   
   156. RY*(   6) C  14                  0.00009     2.46857   
   157. RY*(   7) C  14                  0.00006     2.39173   
   158. RY*(   8) C  14                  0.00003     4.02373   
   159. RY*(   9) C  14                  0.00001     1.94419   
   160. RY*(  10) C  14                  0.00002     2.31230   
   161. RY*(   1) H  15                  0.00081     0.64772   
   162. RY*(   1) C  16                  0.00508     1.17143   
   163. RY*(   2) C  16                  0.00394     0.91768   
   164. RY*(   3) C  16                  0.00098     1.44165   
   165. RY*(   4) C  16                  0.00048     1.26327   
   166. RY*(   5) C  16                  0.00038     1.29593   
   167. RY*(   6) C  16                  0.00009     2.46860   
   168. RY*(   7) C  16                  0.00006     2.39241   
   169. RY*(   8) C  16                  0.00003     4.02177   
   170. RY*(   9) C  16                  0.00001     1.94673   
   171. RY*(  10) C  16                  0.00002     2.31101   
   172. RY*(   1) H  17                  0.00081     0.64810   
   173. RY*(   1) C  18                  0.00818     1.17585   
   174. RY*(   2) C  18                  0.00582     1.23924   
   175. RY*(   3) C  18                  0.00113     0.81186   
   176. RY*(   4) C  18                  0.00087     1.09755   
   177. RY*(   5) C  18                  0.00082     1.90354   
   178. RY*(   6) C  18                  0.00027     1.86972   
   179. RY*(   7) C  18                  0.00025     2.56363   
   180. RY*(   8) C  18                  0.00021     2.34852   
   181. RY*(   9) C  18                  0.00005     3.97055   
   182. RY*(  10) C  18                  0.00002     2.58109   
   183. RY*(   1) H  19                  0.00127     0.63718   
   184. RY*(   1) H  20                  0.00127     0.63732   
   185. RY*(   1) N  21                  0.01683     1.21134   
   186. RY*(   2) N  21                  0.01012     1.39747   
   187. RY*(   3) N  21                  0.00922     2.06485   
   188. RY*(   4) N  21                  0.00327     2.34860   
   189. RY*(   5) N  21                  0.00292     2.55468   
   190. RY*(   6) N  21                  0.00141     1.69445   
   191. RY*(   7) N  21                  0.00025     3.28475   
   192. RY*(   8) N  21                  0.00013     1.43813   
   193. RY*(   9) N  21                  0.00003     1.03719   
   194. RY*(  10) N  21                  0.00001     2.62558   
   195. RY*(   1) O  22                  0.00241     1.19757   
   196. RY*(   2) O  22                  0.00189     1.05041   
   197. RY*(   3) O  22                  0.00140     1.84600   
   198. RY*(   4) O  22                  0.00009     1.22315   
   199. RY*(   5) O  22                  0.00004     2.98672   
   200. RY*(   6) O  22                  0.00003     1.92047   
   201. RY*(   7) O  22                  0.00001     2.56053   
   202. RY*(   8) O  22                  0.00000     2.25048   
   203. RY*(   9) O  22                  0.00001     2.48488   
   204. RY*(  10) O  22                  0.00000     2.25813   
   205. RY*(   1) O  23                  0.00241     1.19754   
   206. RY*(   2) O  23                  0.00226     1.04889   
   207. RY*(   3) O  23                  0.00140     1.84600   
   208. RY*(   4) O  23                  0.00009     1.22359   
   209. RY*(   5) O  23                  0.00004     2.98656   
   210. RY*(   6) O  23                  0.00003     1.92040   
   211. RY*(   7) O  23                  0.00001     2.57075   
   212. RY*(   8) O  23                  0.00000     2.23546   
   213. RY*(   9) O  23                  0.00001     2.50308   
   214. RY*(  10) O  23                  0.00000     2.24473   
   215. RY*(   1) N  24                  0.00205     0.89763   
   216. RY*(   2) N  24                  0.00187     1.28124   
   217. RY*(   3) N  24                  0.00021     1.00910   
   218. RY*(   4) N  24                  0.00001     2.18639   
   219. RY*(   5) N  24                  0.00002     2.44561   
   220. RY*(   6) N  24                  0.00001     2.08321   
   221. RY*(   7) N  24                  0.00000     1.91523   
   222. RY*(   8) N  24                  0.00001     2.23250   
   223. RY*(   9) N  24                  0.00001     1.44959   
   224. RY*(  10) N  24                  0.00000     3.56115   
   225. RY*(   1) H  25                  0.00110     0.62570   
   226. RY*(   1) H  26                  0.00109     0.62550   
   227. BD*(   1) C   1 - C   2          0.01277     0.65766   
   228. BD*(   2) C   1 - C   2          0.32940     0.07247  234(v),239(v),70(g),59(g)
   229. BD*(   1) C   1 - C   6          0.02271     0.62204   
   230. BD*(   1) C   1 - H   7          0.01149     0.52430   
   231. BD*(   1) C   2 - C   3          0.02265     0.63286   
   232. BD*(   1) C   2 - H   8          0.01165     0.53204   
   233. BD*(   1) C   3 - C   4          0.02268     0.63259   
   234. BD*(   2) C   3 - C   4          0.39618     0.06974  228(v),239(v),244(v),90(g)
                                                    89(g),79(g),99(v),242(v)
   235. BD*(   1) C   3 - C  11          0.02776     0.54806   
   236. BD*(   1) C   4 - C   5          0.01276     0.65774   
   237. BD*(   1) C   4 - H   9          0.01165     0.53213   
   238. BD*(   1) C   5 - C   6          0.02273     0.62188   
   239. BD*(   2) C   5 - C   6          0.40049     0.06357  234(v),228(v),99(g),215(v)
                                                    110(g),112(g),100(g)
   240. BD*(   1) C   5 - H  10          0.01146     0.52459   
   241. BD*(   1) C   6 - N  24          0.01717     0.51331   
   242. BD*(   1) C  11 - C  12          0.02283     0.61804   
   243. BD*(   1) C  11 - C  13          0.02274     0.61795   
   244. BD*(   2) C  11 - C  13          0.35086     0.06367  246(v),253(v),234(v),143(g)
                                                    124(g),231(v)
   245. BD*(   1) C  12 - C  14          0.01439     0.64685   
   246. BD*(   2) C  12 - C  14          0.29219     0.06658  244(v),253(v),134(g),154(g)
   247. BD*(   1) C  12 - H  15          0.01201     0.52957   
   248. BD*(   1) C  13 - C  16          0.01438     0.64692   
   249. BD*(   1) C  13 - H  17          0.01198     0.53015   
   250. BD*(   1) C  14 - C  18          0.02215     0.62466   
   251. BD*(   1) C  14 - H  19          0.01295     0.53988   
   252. BD*(   1) C  16 - C  18          0.02215     0.62471   
   253. BD*(   2) C  16 - C  18          0.39340     0.05116  244(v),246(v),258(v),164(g)
                                                    175(g),144(v)
   254. BD*(   1) C  16 - H  20          0.01294     0.54004   
   255. BD*(   1) C  18 - N  21          0.09484     0.35560   
   256. BD*(   1) N  21 - O  22          0.05438     0.48563   
   257. BD*(   1) N  21 - O  23          0.05437     0.48570   
   258. BD*(   2) N  21 - O  23          0.61585    -0.10250  53(v),253(v),187(g),206(g)
                                                    193(g),196(v),212(g)
   259. BD*(   1) N  24 - H  25          0.00677     0.52010   
   260. BD*(   1) N  24 - H  26          0.00682     0.52006   
       -------------------------------
              Total Lewis  108.42264  ( 96.8059%)
        Valence non-Lewis    3.37154  (  3.0103%)
        Rydberg non-Lewis    0.20582  (  0.1838%)
       -------------------------------
            Total unit  1  112.00000  (100.0000%)
           Charge unit  1    0.00000
 Leave Link  607 at Sat Oct 31 23:06:35 2020, MaxMem=   655360000 cpu:               7.0 elap:               6.9
 (Enter D:\study\G16W\l9999.exe)
 1|1|UNPC-X500|SP|RCAM-B3LYP|6-31G(d)|C12H10N2O2|SOBEREVA|31-Oct-2020|0
 ||#P CAM-B3LYP/6-31g(d) pop=nboread||b3lyp/6-31g(d) opted||0,1|C,0,3.5
 58638,-1.138747,0.399836|C,0,2.170316,-1.133918,0.393595|C,0,1.43742,-
 0.001168,-0.004712|C,0,2.171107,1.131101,-0.402994|C,0,3.559403,1.1355
 87,-0.407278|C,0,4.282122,-0.001795,-0.003524|H,0,4.094552,-2.027842,0
 .724335|H,0,1.6438,-2.019282,0.738753|H,0,1.64529,2.01808,-0.745042|H,
 0,4.096162,2.021237,-0.739602|C,0,-0.04054,-0.000325,-0.003104|C,0,-0.
 767741,1.170235,0.294088|C,0,-0.769267,-1.170392,-0.298523|C,0,-2.1566
 27,1.180103,0.295206|H,0,-0.23466,2.078825,0.555813|C,0,-2.158185,-1.1
 79384,-0.295595|H,0,-0.23738,-2.079014,-0.562484|C,0,-2.839993,0.00051
 6,0.000961|H,0,-2.717298,2.076167,0.531503|H,0,-2.720025,-2.075075,-0.
 530534|N,0,-4.30454,0.000917,0.003547|O,0,-4.878793,1.060252,0.263468|
 O,0,-4.880312,-1.058027,-0.254447|N,0,5.671583,-0.020627,-0.056413|H,0
 ,6.126117,-0.70583,0.533278|H,0,6.127057,0.882023,-0.015869||Version=E
 M64W-G16RevA.03|State=1-A|HF=-722.7964898|RMSD=9.704e-009|Dipole=2.979
 8965,0.1362544,0.3977859|Quadrupole=-4.9348221,6.4653903,-1.5305682,1.
 7113798,4.920092,-1.4917727|PG=C01 [X(C12H10N2O2)]||@


 IF OTHER PEOPLE ARE GOING TO TALK, CONVERSATION IS SIMPLY IMPOSSIBLE.

                                               -- WHISTLER'S PRINCIPLE
 Job cpu time:       0 days  0 hours  5 minutes 16.0 seconds.
 Elapsed time:       0 days  0 hours  5 minutes 11.4 seconds.
 File lengths (MBytes):  RWF=     42 Int=      0 D2E=      0 Chk=      5 Scr=      1
 Normal termination of Gaussian 16 at Sat Oct 31 23:06:37 2020.
