 Entering Gaussian System, Link 0=g16
 Initial command:
 /sob/g16/l1.exe "/sob2/gauscr/Gau-13157.inp" -scrdir="/sob2/gauscr/"
 Default is to use a total of  36 processors:
                               36 via shared-memory
                                1 via Linda
 Entering Link 1 = /sob/g16/l1.exe PID=     13159.
  
 Copyright (c) 1988,1990,1992,1993,1995,1998,2003,2009,2016,
            Gaussian, Inc.  All Rights Reserved.
  
 This is part of the Gaussian(R) 16 program.  It is based on
 the Gaussian(R) 09 system (copyright 2009, Gaussian, Inc.),
 the Gaussian(R) 03 system (copyright 2003, Gaussian, Inc.),
 the Gaussian(R) 98 system (copyright 1998, Gaussian, Inc.),
 the Gaussian(R) 94 system (copyright 1995, Gaussian, Inc.),
 the Gaussian 92(TM) system (copyright 1992, Gaussian, Inc.),
 the Gaussian 90(TM) system (copyright 1990, Gaussian, Inc.),
 the Gaussian 88(TM) system (copyright 1988, Gaussian, Inc.),
 the Gaussian 86(TM) system (copyright 1986, Carnegie Mellon
 University), and the Gaussian 82(TM) system (copyright 1983,
 Carnegie Mellon University). Gaussian is a federally registered
 trademark of Gaussian, Inc.
  
 This software contains proprietary and confidential information,
 including trade secrets, belonging to Gaussian, Inc.
  
 This software is provided under written license and may be
 used, copied, transmitted, or stored only in accord with that
 written license.
  
 The following legend is applicable only to US Government
 contracts under FAR:
  
                    RESTRICTED RIGHTS LEGEND
  
 Use, reproduction and disclosure by the US Government is
 subject to restrictions as set forth in subparagraphs (a)
 and (c) of the Commercial Computer Software - Restricted
 Rights clause in FAR 52.227-19.
  
 Gaussian, Inc.
 340 Quinnipiac St., Bldg. 40, Wallingford CT 06492
  
  
 ---------------------------------------------------------------
 Warning -- This program may not be used in any manner that
 competes with the business of Gaussian, Inc. or will provide
 assistance to any competitor of Gaussian, Inc.  The licensee
 of this program is prohibited from giving any competitor of
 Gaussian, Inc. access to this program.  By using this program,
 the user acknowledges that Gaussian, Inc. is engaged in the
 business of creating and licensing software in the field of
 computational chemistry and represents and warrants to the
 licensee that it is not a competitor of Gaussian, Inc. and that
 it will not use this program in any manner prohibited above.
 ---------------------------------------------------------------
  

 Cite this work as:
 Gaussian 16, Revision A.03,
 M. J. Frisch, G. W. Trucks, H. B. Schlegel, G. E. Scuseria, 
 M. A. Robb, J. R. Cheeseman, G. Scalmani, V. Barone, 
 G. A. Petersson, H. Nakatsuji, X. Li, M. Caricato, A. V. Marenich, 
 J. Bloino, B. G. Janesko, R. Gomperts, B. Mennucci, H. P. Hratchian, 
 J. V. Ortiz, A. F. Izmaylov, J. L. Sonnenberg, D. Williams-Young, 
 F. Ding, F. Lipparini, F. Egidi, J. Goings, B. Peng, A. Petrone, 
 T. Henderson, D. Ranasinghe, V. G. Zakrzewski, J. Gao, N. Rega, 
 G. Zheng, W. Liang, M. Hada, M. Ehara, K. Toyota, R. Fukuda, 
 J. Hasegawa, M. Ishida, T. Nakajima, Y. Honda, O. Kitao, H. Nakai, 
 T. Vreven, K. Throssell, J. A. Montgomery, Jr., J. E. Peralta, 
 F. Ogliaro, M. J. Bearpark, J. J. Heyd, E. N. Brothers, K. N. Kudin, 
 V. N. Staroverov, T. A. Keith, R. Kobayashi, J. Normand, 
 K. Raghavachari, A. P. Rendell, J. C. Burant, S. S. Iyengar, 
 J. Tomasi, M. Cossi, J. M. Millam, M. Klene, C. Adamo, R. Cammi, 
 J. W. Ochterski, R. L. Martin, K. Morokuma, O. Farkas, 
 J. B. Foresman, and D. J. Fox, Gaussian, Inc., Wallingford CT, 2016.
 
 ******************************************
 Gaussian 16:  ES64L-G16RevA.03 25-Dec-2016
                 8-Aug-2018 
 ******************************************
 %chk=D-pi-A.chk
 ----------------------------------------------
 # CAM-B3LYP/6-31g(d) TD(nstates=5) IOp(9/40=4)
 ----------------------------------------------
 1/38=1,172=1/1;
 2/12=2,17=6,18=5,40=1/2;
 3/5=1,6=6,7=1,11=9,25=1,30=1,74=-40/1,2,3,8;
 4//1;
 5/5=2,38=5/2;
 8/6=1,10=2,108=5/1;
 9/40=4,41=5,42=1,70=2/14;
 6/7=2,8=2,9=2,10=2/1;
 99/5=1,9=1/99;
 --------------------
 b3lyp/6-31g(d) opted
 --------------------
 Symbolic Z-matrix:
 Charge =  0 Multiplicity = 1
 C                     3.55864  -1.13875   0.39984 
 C                     2.17032  -1.13392   0.3936 
 C                     1.43742  -0.00117  -0.00471 
 C                     2.17111   1.1311   -0.40299 
 C                     3.5594    1.13559  -0.40728 
 C                     4.28212  -0.0018   -0.00352 
 H                     4.09455  -2.02784   0.72434 
 H                     1.6438   -2.01928   0.73875 
 H                     1.64529   2.01808  -0.74504 
 H                     4.09616   2.02124  -0.7396 
 C                    -0.04054  -0.00033  -0.0031 
 C                    -0.76774   1.17024   0.29409 
 C                    -0.76927  -1.17039  -0.29852 
 C                    -2.15663   1.1801    0.29521 
 H                    -0.23466   2.07883   0.55581 
 C                    -2.15819  -1.17938  -0.2956 
 H                    -0.23738  -2.07901  -0.56248 
 C                    -2.83999   0.00052   0.00096 
 H                    -2.7173    2.07617   0.5315 
 H                    -2.72003  -2.07508  -0.53053 
 N                    -4.30454   0.00092   0.00355 
 O                    -4.87879   1.06025   0.26347 
 O                    -4.88031  -1.05803  -0.25445 
 N                     5.67158  -0.02063  -0.05641 
 H                     6.12612  -0.70583   0.53328 
 H                     6.12706   0.88202  -0.01587 
 
                          Input orientation:                          
 ---------------------------------------------------------------------
 Center     Atomic      Atomic             Coordinates (Angstroms)
 Number     Number       Type             X           Y           Z
 ---------------------------------------------------------------------
      1          6           0        3.558638   -1.138747    0.399836
      2          6           0        2.170316   -1.133918    0.393595
      3          6           0        1.437420   -0.001168   -0.004712
      4          6           0        2.171107    1.131101   -0.402994
      5          6           0        3.559403    1.135587   -0.407278
      6          6           0        4.282122   -0.001795   -0.003524
      7          1           0        4.094552   -2.027842    0.724335
      8          1           0        1.643800   -2.019282    0.738753
      9          1           0        1.645290    2.018080   -0.745042
     10          1           0        4.096162    2.021237   -0.739602
     11          6           0       -0.040540   -0.000325   -0.003104
     12          6           0       -0.767741    1.170235    0.294088
     13          6           0       -0.769267   -1.170392   -0.298523
     14          6           0       -2.156627    1.180103    0.295206
     15          1           0       -0.234660    2.078825    0.555813
     16          6           0       -2.158185   -1.179384   -0.295595
     17          1           0       -0.237380   -2.079014   -0.562484
     18          6           0       -2.839993    0.000516    0.000961
     19          1           0       -2.717298    2.076167    0.531503
     20          1           0       -2.720025   -2.075075   -0.530534
     21          7           0       -4.304540    0.000917    0.003547
     22          8           0       -4.878793    1.060252    0.263468
     23          8           0       -4.880312   -1.058027   -0.254447
     24          7           0        5.671583   -0.020627   -0.056413
     25          1           0        6.126117   -0.705830    0.533278
     26          1           0        6.127057    0.882023   -0.015869
 ---------------------------------------------------------------------
                    Distance matrix (angstroms):
                    1          2          3          4          5
     1  C    0.000000
     2  C    1.388344   0.000000
     3  C    2.440760   1.406736   0.000000
     4  C    2.778847   2.401013   1.406755   0.000000
     5  C    2.413302   2.778779   2.440714   1.388310   0.000000
     6  C    1.406694   2.428813   2.844702   2.428871   1.406761
     7  H    1.087655   2.147364   3.420419   3.866450   3.402090
     8  H    2.134669   1.086380   2.160583   3.392131   3.864728
     9  H    3.864868   3.392232   2.160708   1.086376   2.134644
    10  H    3.401874   3.866267   3.420394   2.147437   1.087624
    11  C    3.796373   2.516006   1.477961   2.516231   3.796478
    12  C    4.905113   3.735131   2.514797   3.020643   4.383753
    13  C    4.384001   3.020183   2.514533   3.735450   4.905787
    14  C    6.168652   4.907831   3.795066   4.383967   5.759207
    15  H    4.976566   4.016459   2.726978   2.757754   4.026432
    16  C    5.759109   4.383260   3.794889   4.908426   6.169471
    17  H    4.027395   2.757588   2.726446   4.016352   4.977279
    18  C    6.511490   5.152116   4.277417   5.152914   6.512090
    19  H    7.052686   5.849140   4.675952   5.065860   6.415838
    20  H    6.415910   5.065099   4.675674   5.849701   7.053705
    21  N    7.955215   6.585116   5.741966   6.586091   7.955995
    22  O    8.720346   7.383851   6.410388   7.081686   8.465148
    23  O    8.464661   7.080754   6.410387   7.384907   8.721473
    24  N    2.433699   3.701458   4.234523   3.701341   2.433360
    25  H    2.607139   3.981348   4.771778   4.460160   3.295980
    26  H    3.294404   4.459538   4.772090   3.982643   2.609663
                    6          7          8          9         10
     6  C    0.000000
     7  H    2.160978   0.000000
     8  H    3.403230   2.450809   0.000000
     9  H    3.403326   4.952518   4.301388   0.000000
    10  H    2.160799   4.305596   4.952313   2.450880   0.000000
    11  C    4.322662   4.662508   2.731948   2.732481   4.662772
    12  C    5.192624   5.835641   4.023217   2.760679   5.044826
    13  C    5.193185   5.043629   2.760335   4.024403   5.835533
    14  C    6.553138   7.039340   4.987589   4.029751   6.393411
    15  H    5.004314   5.969522   4.511824   2.286947   4.520778
    16  C    6.553593   6.391937   4.028696   4.989208   7.039742
    17  H    5.005315   4.519309   2.288149   4.512644   5.968502
    18  C    7.122117   7.261227   4.972758   4.974419   7.262368
    19  H    7.320933   7.954959   5.986220   4.545890   6.931231
    20  H    7.321632   6.929314   4.545016   5.987980   7.955117
    21  N    8.586665   8.670648   6.324910   6.326911   8.672125
    22  O    9.226136   9.501034   7.228668   6.670696   9.081820
    23  O    9.226526   9.080019   6.668920   7.230947   9.502333
    24  N    1.390595   2.669364   4.566174   4.565257   2.667941
    25  H    2.045517   2.431352   4.675312   5.397370   3.630129
    26  H    2.045745   3.625782   5.393201   4.680657   2.438469
                   11         12         13         14         15
    11  C    0.000000
    12  C    1.409736   0.000000
    13  C    1.409742   2.414482   0.000000
    14  C    2.441357   1.388922   2.793225   0.000000
    15  H    2.161697   1.085454   3.401927   2.137656   0.000000
    16  C    2.441342   2.793165   1.388950   2.432330   3.878243
    17  H    2.161620   3.401855   1.085437   3.878271   4.305603
    18  C    2.799456   2.397581   2.397628   1.394631   3.378608
    19  H    3.429673   2.162834   3.876069   1.083106   2.482758
    20  H    3.429637   3.876010   2.162808   3.405209   4.961056
    21  N    4.264005   3.736397   3.736491   2.467605   4.602893
    22  O    4.960300   4.112637   4.709545   2.724988   4.763500
    23  O    4.960373   4.709489   4.112817   3.567885   5.663784
    24  N    5.712408   6.557888   6.547146   7.927563   6.298113
    25  H    6.230016   7.148574   6.960893   8.498074   6.943651
    26  H    6.230406   6.907777   7.200804   8.294880   6.498507
                   16         17         18         19         20
    16  C    0.000000
    17  H    2.137769   0.000000
    18  C    1.394622   3.378685   0.000000
    19  H    3.405189   4.961082   2.145893   0.000000
    20  H    1.083108   2.482854   2.145916   4.284943   0.000000
    21  N    2.467678   4.603074   1.464549   2.665471   2.665647
    22  O    3.567945   5.663912   2.312716   2.403328   3.888572
    23  O    2.725141   4.763834   2.312714   3.888383   2.403633
    24  N    7.918661   6.277652   8.511796   8.666921   8.652435
    25  H    8.339121   6.601547   9.009629   9.270680   9.014475
    26  H    8.542417   7.040780   9.010290   8.941376   9.342386
                   21         22         23         24         25
    21  N    0.000000
    22  O    1.232687   0.000000
    23  O    1.232654   2.180675   0.000000
    24  N    9.976326  10.610422  10.604617   0.000000
    25  H   10.467985  11.148986  11.040201   1.011850   0.000000
    26  H   10.468760  11.010837  11.179574   1.011868   1.680131
                   26
    26  H    0.000000
 Stoichiometry    C12H10N2O2
 Framework group  C1[X(C12H10N2O2)]
 Deg. of freedom    72
 Full point group                 C1      NOp   1
 Largest Abelian subgroup         C1      NOp   1
 Largest concise Abelian subgroup C1      NOp   1
                         Standard orientation:                         
 ---------------------------------------------------------------------
 Center     Atomic      Atomic             Coordinates (Angstroms)
 Number     Number       Type             X           Y           Z
 ---------------------------------------------------------------------
      1          6           0        3.558638   -1.138747    0.399836
      2          6           0        2.170316   -1.133918    0.393595
      3          6           0        1.437420   -0.001168   -0.004712
      4          6           0        2.171107    1.131101   -0.402994
      5          6           0        3.559403    1.135587   -0.407278
      6          6           0        4.282122   -0.001795   -0.003524
      7          1           0        4.094552   -2.027842    0.724335
      8          1           0        1.643800   -2.019282    0.738753
      9          1           0        1.645290    2.018080   -0.745042
     10          1           0        4.096162    2.021237   -0.739602
     11          6           0       -0.040540   -0.000325   -0.003104
     12          6           0       -0.767741    1.170235    0.294088
     13          6           0       -0.769267   -1.170392   -0.298523
     14          6           0       -2.156627    1.180103    0.295206
     15          1           0       -0.234660    2.078825    0.555813
     16          6           0       -2.158185   -1.179384   -0.295595
     17          1           0       -0.237380   -2.079014   -0.562484
     18          6           0       -2.839993    0.000516    0.000961
     19          1           0       -2.717298    2.076167    0.531503
     20          1           0       -2.720025   -2.075075   -0.530534
     21          7           0       -4.304540    0.000917    0.003547
     22          8           0       -4.878793    1.060252    0.263468
     23          8           0       -4.880312   -1.058027   -0.254447
     24          7           0        5.671583   -0.020627   -0.056413
     25          1           0        6.126117   -0.705830    0.533278
     26          1           0        6.127057    0.882023   -0.015869
 ---------------------------------------------------------------------
 Rotational constants (GHZ):           2.3298040           0.2019558           0.1883059
 Standard basis: 6-31G(d) (6D, 7F)
 There are   260 symmetry adapted cartesian basis functions of A   symmetry.
 There are   260 symmetry adapted basis functions of A   symmetry.
   260 basis functions,   488 primitive gaussians,   260 cartesian basis functions
    56 alpha electrons       56 beta electrons
       nuclear repulsion energy       967.3008898109 Hartrees.
 NAtoms=   26 NActive=   26 NUniq=   26 SFac= 1.00D+00 NAtFMM=   60 NAOKFM=F Big=F
 Integral buffers will be    131072 words long.
 Raffenetti 1 integral format.
 Two-electron integral symmetry is turned on.
 One-electron integrals computed using PRISM.
 NBasis=   260 RedAO= T EigKep=  3.98D-04  NBF=   260
 NBsUse=   260 1.00D-06 EigRej= -1.00D+00 NBFU=   260
 ExpMin= 1.61D-01 ExpMax= 5.48D+03 ExpMxC= 8.25D+02 IAcc=3 IRadAn=         5 AccDes= 0.00D+00
 Harris functional with IExCor=20419 and IRadAn=       5 diagonalized for initial guess.
 HarFok:  IExCor=20419 AccDes= 0.00D+00 IRadAn=         5 IDoV= 1 UseB2=F ITyADJ=14
 ICtDFT=  3500011 ScaDFX=  1.000000  1.000000  1.000000  1.000000
 FoFCou: FMM=F IPFlag=           0 FMFlag=      100000 FMFlg1=           0
         NFxFlg=           0 DoJE=T BraDBF=F KetDBF=T FulRan=T
         wScrn=  0.000000 ICntrl=       500 IOpCl=  0 I1Cent=   200000004 NGrid=           0
         NMat0=    1 NMatS0=      1 NMatT0=    0 NMatD0=    1 NMtDS0=    0 NMtDT0=    0
 Petite list used in FoFCou.
 Requested convergence on RMS density matrix=1.00D-08 within 128 cycles.
 Requested convergence on MAX density matrix=1.00D-06.
 Requested convergence on             energy=1.00D-06.
 No special actions if energy rises.
 Integral accuracy reduced to 1.0D-05 until final iterations.
 Initial convergence to 1.0D-05 achieved.  Increase integral accuracy.
 SCF Done:  E(RCAM-B3LYP) =  -722.796489809     A.U. after   15 cycles
            NFock= 15  Conv=0.97D-08     -V/T= 2.0093
 DoSCS=F DFT=T ScalE2(SS,OS)=  1.000000  1.000000
 ExpMin= 1.61D-01 ExpMax= 5.48D+03 ExpMxC= 8.25D+02 IAcc=3 IRadAn=         5 AccDes= 0.00D+00
 HarFok:  IExCor=  205 AccDes= 0.00D+00 IRadAn=         5 IDoV=-2 UseB2=F ITyADJ=14
 ICtDFT= 12500011 ScaDFX=  1.000000  1.000000  1.000000  1.000000
 Range of M.O.s used for correlation:    17   260
 NBasis=   260 NAE=    56 NBE=    56 NFC=    16 NFV=     0
 NROrb=    244 NOA=    40 NOB=    40 NVA=   204 NVB=   204

 **** Warning!!: The largest alpha MO coefficient is  0.10758239D+02

 Keep R1, R2, and R3 ints in memory in canonical form, NReq=3694738244.
 Orbital symmetries:
       Occupied  (A) (A) (A) (A) (A) (A) (A) (A) (A) (A) (A) (A)
                 (A) (A) (A) (A) (A) (A) (A) (A) (A) (A) (A) (A)
                 (A) (A) (A) (A) (A) (A) (A) (A) (A) (A) (A) (A)
                 (A) (A) (A) (A) (A) (A) (A) (A) (A) (A) (A) (A)
                 (A) (A) (A) (A) (A) (A) (A) (A)
       Virtual   (A) (A) (A) (A) (A) (A) (A) (A) (A) (A) (A) (A)
                 (A) (A) (A) (A) (A) (A) (A) (A) (A) (A) (A) (A)
                 (A) (A) (A) (A) (A) (A) (A) (A) (A) (A) (A) (A)
                 (A) (A) (A) (A) (A) (A) (A) (A) (A) (A) (A) (A)
                 (A) (A) (A) (A) (A) (A) (A) (A) (A) (A) (A) (A)
                 (A) (A) (A) (A) (A) (A) (A) (A) (A) (A) (A) (A)
                 (A) (A) (A) (A) (A) (A) (A) (A) (A) (A) (A) (A)
                 (A) (A) (A) (A) (A) (A) (A) (A) (A) (A) (A) (A)
                 (A) (A) (A) (A) (A) (A) (A) (A) (A) (A) (A) (A)
                 (A) (A) (A) (A) (A) (A) (A) (A) (A) (A) (A) (A)
                 (A) (A) (A) (A) (A) (A) (A) (A) (A) (A) (A) (A)
                 (A) (A) (A) (A) (A) (A) (A) (A) (A) (A) (A) (A)
                 (A) (A) (A) (A) (A) (A) (A) (A) (A) (A) (A) (A)
                 (A) (A) (A) (A) (A) (A) (A) (A) (A) (A) (A) (A)
                 (A) (A) (A) (A) (A) (A) (A) (A) (A) (A) (A) (A)
                 (A) (A) (A) (A) (A) (A) (A) (A) (A) (A) (A) (A)
                 (A) (A) (A) (A) (A) (A) (A) (A) (A) (A) (A) (A)
    20 initial guesses have been made.
 Convergence on wavefunction:    0.001000000000000
 Iteration     1 Dimension    20 NMult     0 NNew     20
 CISAX will form    20 AO SS matrices at one time.
 New state      2 was old state      8
 New state      3 was old state     10
 New state      5 was old state      7
 Iteration     2 Dimension    30 NMult    20 NNew     10
 New state      1 was old state      2
 New state      2 was old state      1
 Iteration     3 Dimension    40 NMult    30 NNew     10
 Iteration     4 Dimension    50 NMult    40 NNew     10
 Iteration     5 Dimension    60 NMult    50 NNew     10
 ***********************************************************************
 Excited states from <AA,BB:AA,BB> singles matrix:
 ***********************************************************************
 
 Ground to excited state transition densities written to RWF  633
 Ground to excited state transition electric dipole moments (Au):
       state          X           Y           Z        Dip. S.      Osc.
         1         0.4427     -0.0005     -0.0012      0.1960      0.0188
         2         2.5270     -0.0029     -0.0072      6.3856      0.6355
         3        -0.0023      0.0005     -0.0251      0.0006      0.0001
         4        -0.0001      0.3395     -0.0114      0.1154      0.0135
         5        -0.0029      0.1915     -0.1702      0.0656      0.0079
 Ground to excited state transition velocity dipole moments (Au):
       state          X           Y           Z        Dip. S.      Osc.
         1        -0.0619      0.0000     -0.0000      0.0038      0.0178
         2        -0.3684      0.0001     -0.0001      0.1357      0.6060
         3         0.0004      0.0008      0.0007      0.0000      0.0000
         4         0.0001     -0.0641      0.0066      0.0042      0.0157
         5         0.0005     -0.0368      0.0350      0.0026      0.0096
 Ground to excited state transition magnetic dipole moments (Au):
       state          X           Y           Z
         1        -0.6372      0.0009      0.0012
         2         0.0612      0.0073      0.0006
         3         0.0007      1.0650      0.2724
         4         0.0054      0.0635     -0.3497
         5         0.0144     -0.0238     -0.0052
 Ground to excited state transition velocity quadrupole moments (Au):
       state          XX          YY          ZZ          XY          XZ          YZ
         1        -0.0385      0.0123     -0.0141     -0.0000     -0.0008     -0.0111
         2        -0.2599      0.0033     -0.0123     -0.0000     -0.0044      0.0740
         3        -0.0004      0.0000      0.0002      0.0095     -0.0592     -0.0001
         4         0.0083      0.0004     -0.0011     -0.0746      0.0990      0.0015
         5         0.0024      0.0019     -0.0021     -0.5316      0.1382      0.0026
 <0|del|b> * <b|rxdel|0> + <0|del|b> * <b|delr+rdel|0>
 Rotatory Strengths (R) in cgs (10**-40 erg-esu-cm/Gauss)
       state          XX          YY          ZZ    R(velocity)    E-M Angle
         1         0.0001     98.8730     95.4980     64.7904       90.00
         2         0.0034   -117.9342     11.1567    -35.5914      173.16
         3         2.3707      0.4171      1.7221      1.5033       33.65
         4        -1.0108     -3.6174    -20.9321     -8.5201      106.12
         5       -25.3156     36.3466     -8.2736      0.9191       60.81
 1/2[<0|r|b>*<b|rxdel|0> + (<0|rxdel|b>*<b|r|0>)*]
 Rotatory Strengths (R) in cgs (10**-40 erg-esu-cm/Gauss)
       state          XX          YY          ZZ     R(length)
         1       199.5034      0.0003      0.0011     66.5016
         2      -109.3518      0.0150      0.0030    -36.4446
         3         0.0011     -0.3848      4.8268      1.4810
         4         0.0003    -15.2469     -2.8077     -6.0181
         5         0.0292      3.2167     -0.6201      0.8753
  1/2[<0|del|b>*<b|r|0> + (<0|r|b>*<b|del|0>)*] (Au)
       state          X           Y           Z        Dip. S.   Osc.(frdel)
         1        -0.0274     -0.0000      0.0000      0.0274      0.0183
         2        -0.9309     -0.0000      0.0000      0.9309      0.6206
         3        -0.0000      0.0000     -0.0000      0.0000      0.0000
         4        -0.0000     -0.0218     -0.0001      0.0219      0.0146
         5        -0.0000     -0.0070     -0.0060      0.0130      0.0087

 Excitation energies and oscillator strengths:
 
 Excited State   1:      Singlet-A      3.9069 eV  317.35 nm  f=0.0188  <S**2>=0.000
      17 -> 58         0.00024
      17 -> 78        -0.00030
      17 ->182        -0.00183
      17 ->183         0.00041
      18 -> 57        -0.00296
      18 -> 59        -0.00286
      18 -> 61         0.00237
      18 -> 62         0.00039
      18 -> 65        -0.00029
      18 -> 66        -0.00014
      18 -> 67        -0.00120
      18 -> 68        -0.00022
      18 -> 69        -0.00056
      18 -> 70        -0.00030
      18 -> 71         0.00012
      18 -> 72         0.00071
      18 -> 74        -0.00029
      18 -> 77         0.00016
      18 -> 79        -0.00014
      18 -> 82         0.00011
      18 -> 83         0.00012
      18 -> 86        -0.00016
      18 -> 88        -0.00013
      18 -> 91        -0.00028
      18 -> 94        -0.00035
      18 -> 96        -0.00017
      18 ->103        -0.00013
      18 ->106         0.00039
      18 ->109        -0.00010
      18 ->110        -0.00023
      18 ->114        -0.00016
      18 ->115        -0.00024
      18 ->118         0.00013
      18 ->136        -0.00015
      18 ->138         0.00012
      18 ->140        -0.00056
      18 ->142         0.00018
      18 ->155        -0.00020
      18 ->156         0.00159
      18 ->158        -0.00011
      18 ->162        -0.00028
      18 ->164        -0.00014
      18 ->165         0.00012
      18 ->174        -0.00016
      18 ->175         0.00175
      18 ->178         0.00013
      18 ->179         0.00048
      18 ->180         0.00013
      18 ->181        -0.00019
      18 ->188         0.00022
      18 ->189         0.00047
      18 ->190        -0.00030
      19 -> 59        -0.00010
      19 -> 61        -0.00015
      19 -> 62         0.00041
      19 -> 64         0.00015
      19 -> 68         0.00012
      19 -> 71        -0.00011
      19 -> 75         0.00011
      19 -> 93        -0.00016
      19 ->129        -0.00010
      20 -> 58         0.00018
      20 -> 63         0.00011
      20 -> 68        -0.00013
      20 -> 73         0.00032
      20 -> 76         0.00011
      20 -> 85         0.00030
      20 -> 89        -0.00021
      20 -> 92        -0.00011
      20 ->100         0.00015
      20 ->104        -0.00015
      20 ->111         0.00013
      20 ->133         0.00026
      20 ->161        -0.00031
      20 ->182         0.00048
      20 ->183        -0.00010
      21 -> 62        -0.00028
      21 -> 63        -0.00013
      21 -> 68         0.00010
      21 -> 73        -0.00014
      21 -> 75        -0.00027
      21 -> 76         0.00021
      21 -> 81         0.00016
      21 -> 85         0.00018
      21 -> 89         0.00010
      21 -> 93        -0.00015
      21 ->100        -0.00012
      21 ->108        -0.00010
      21 ->133        -0.00014
      21 ->141         0.00014
      21 ->149         0.00010
      21 ->161         0.00027
      21 ->182        -0.00039
      22 -> 58         0.00036
      22 -> 60         0.00012
      22 -> 62         0.00019
      22 -> 63         0.00013
      22 -> 68        -0.00012
      22 -> 73        -0.00014
      22 -> 75        -0.00033
      22 -> 76         0.00027
      22 -> 80        -0.00016
      22 -> 81         0.00014
      22 -> 92        -0.00018
      22 -> 93         0.00012
      22 -> 98        -0.00020
      22 ->102         0.00010
      22 ->119         0.00014
      22 ->133        -0.00042
      22 ->134        -0.00021
      22 ->139        -0.00016
      22 ->141         0.00013
      22 ->143        -0.00013
      22 ->161         0.00061
      22 ->164         0.00011
      22 ->165         0.00014
      22 ->166        -0.00017
      22 ->168        -0.00012
      22 ->169        -0.00010
      22 ->182        -0.00089
      22 ->183         0.00019
      23 -> 57         0.00105
      23 -> 59         0.00085
      23 -> 61        -0.00061
      23 -> 65         0.00014
      23 -> 66        -0.00016
      23 -> 67         0.00013
      23 -> 70        -0.00015
      23 -> 74         0.00038
      23 -> 77        -0.00028
      23 -> 83        -0.00014
      23 -> 90        -0.00014
      23 -> 94        -0.00017
      23 -> 96        -0.00010
      23 ->140         0.00016
      23 ->142        -0.00011
      23 ->156        -0.00018
      24 -> 57         0.00033
      24 -> 59         0.00040
      24 -> 61        -0.00026
      24 -> 65         0.00021
      24 -> 66        -0.00016
      24 -> 67         0.00013
      24 -> 70        -0.00032
      24 -> 74        -0.00011
      24 -> 77        -0.00012
      24 -> 79         0.00024
      24 -> 83         0.00011
      24 -> 96         0.00015
      25 -> 58        -0.00042
      25 -> 61        -0.00010
      25 -> 62         0.00028
      25 -> 63        -0.00021
      25 -> 64         0.00022
      25 -> 75        -0.00045
      25 -> 80         0.00013
      25 -> 85         0.00020
      25 -> 93         0.00015
      25 -> 95        -0.00012
      25 ->101        -0.00014
      25 ->113         0.00012
      25 ->120        -0.00011
      25 ->121        -0.00011
      25 ->133         0.00034
      25 ->134         0.00011
      25 ->137        -0.00013
      25 ->139         0.00015
      25 ->159         0.00013
      25 ->161        -0.00051
      25 ->166         0.00014
      25 ->182         0.00085
      25 ->183        -0.00018
      26 -> 62        -0.00030
      26 -> 63        -0.00025
      26 -> 64         0.00014
      26 -> 68        -0.00033
      26 -> 71        -0.00022
      26 -> 73        -0.00051
      26 -> 75         0.00010
      26 -> 76         0.00030
      26 -> 80        -0.00030
      26 -> 81         0.00022
      26 -> 89        -0.00012
      26 -> 92        -0.00022
      26 -> 95         0.00015
      26 -> 97        -0.00017
      26 -> 99         0.00022
      26 ->100        -0.00014
      26 ->101         0.00010
      26 ->113         0.00029
      26 ->122         0.00010
      26 ->133         0.00021
      26 ->134         0.00012
      26 ->141        -0.00011
      26 ->143        -0.00011
      26 ->154        -0.00012
      26 ->159         0.00015
      26 ->161        -0.00040
      26 ->165        -0.00010
      26 ->182         0.00111
      26 ->183        -0.00025
      27 -> 57        -0.00247
      27 -> 59        -0.00232
      27 -> 61         0.00182
      27 -> 62         0.00030
      27 -> 67        -0.00117
      27 -> 68        -0.00023
      27 -> 69        -0.00036
      27 -> 70        -0.00033
      27 -> 71         0.00012
      27 -> 72         0.00069
      27 -> 77         0.00062
      27 -> 79        -0.00015
      27 -> 82         0.00044
      27 -> 83        -0.00030
      27 -> 94         0.00021
      27 -> 96        -0.00032
      27 ->103        -0.00019
      27 ->107         0.00015
      27 ->109        -0.00014
      27 ->131        -0.00026
      27 ->135         0.00020
      27 ->136         0.00013
      27 ->138         0.00010
      27 ->140        -0.00025
      27 ->142         0.00024
      27 ->156         0.00025
      28 -> 58         0.00029
      28 -> 61        -0.00014
      28 -> 62         0.00042
      28 -> 63        -0.00027
      28 -> 68        -0.00019
      28 -> 71        -0.00025
      28 -> 73        -0.00024
      28 -> 75        -0.00053
      28 -> 80         0.00010
      28 -> 85        -0.00051
      28 -> 93         0.00014
      28 ->113         0.00017
      28 ->121        -0.00010
      28 ->132        -0.00019
      28 ->133        -0.00030
      28 ->134        -0.00022
      28 ->161         0.00027
      28 ->182         0.00085
      28 ->183        -0.00016
      29 -> 57        -0.00309
      29 -> 59        -0.00269
      29 -> 61         0.00203
      29 -> 62         0.00033
      29 -> 64         0.00010
      29 -> 65        -0.00050
      29 -> 66        -0.00058
      29 -> 67        -0.00103
      29 -> 68        -0.00020
      29 -> 69        -0.00088
      29 -> 70        -0.00068
      29 -> 71         0.00013
      29 -> 72         0.00087
      29 -> 74        -0.00032
      29 -> 77         0.00070
      29 -> 79         0.00045
      29 -> 83         0.00015
      29 -> 86        -0.00022
      29 -> 87         0.00033
      29 -> 90         0.00029
      29 -> 94         0.00014
      29 -> 96        -0.00017
      29 ->110         0.00011
      29 ->135        -0.00010
      29 ->136         0.00013
      29 ->138         0.00029
      29 ->139         0.00011
      29 ->140        -0.00033
      29 ->142         0.00015
      29 ->156         0.00025
      30 -> 58        -0.00011
      30 -> 60        -0.00011
      30 -> 62        -0.00025
      30 -> 63         0.00022
      30 -> 64         0.00021
      30 -> 68        -0.00011
      30 -> 78         0.00033
      30 -> 80        -0.00025
      30 -> 81         0.00052
      30 -> 84        -0.00023
      30 -> 85        -0.00029
      30 -> 89         0.00028
      30 -> 92         0.00030
      30 -> 93        -0.00014
      30 -> 95        -0.00012
      30 -> 97         0.00012
      30 -> 98         0.00011
      30 ->104         0.00011
      30 ->111        -0.00012
      30 ->119        -0.00023
      30 ->120        -0.00011
      30 ->132        -0.00016
      30 ->133        -0.00034
      30 ->137         0.00022
      30 ->141         0.00015
      30 ->161         0.00040
      30 ->165         0.00010
      30 ->182         0.00071
      30 ->183        -0.00019
      31 -> 58         0.00059
      31 -> 60         0.00014
      31 -> 64        -0.00042
      31 -> 73        -0.00018
      31 -> 75        -0.00011
      31 -> 76        -0.00018
      31 -> 78        -0.00014
      31 -> 81         0.00014
      31 -> 84        -0.00015
      31 -> 85        -0.00010
      31 -> 97         0.00012
      31 -> 99         0.00045
      31 ->100         0.00018
      31 ->102        -0.00055
      31 ->103         0.00016
      31 ->107         0.00017
      31 ->108         0.00074
      31 ->110         0.00017
      31 ->111         0.00050
      31 ->112        -0.00016
      31 ->119         0.00012
      31 ->122        -0.00047
      31 ->130        -0.00024
      31 ->132        -0.00022
      31 ->133         0.00243
      31 ->134         0.00099
      31 ->135        -0.00014
      31 ->137        -0.00072
      31 ->138        -0.00013
      31 ->139         0.00024
      31 ->141        -0.00048
      31 ->154        -0.00042
      31 ->155         0.00020
      31 ->157        -0.00011
      31 ->159         0.00065
      31 ->161        -0.00293
      31 ->164        -0.00040
      31 ->165        -0.00053
      31 ->166         0.00048
      31 ->167        -0.00028
      31 ->168         0.00031
      31 ->169         0.00028
      31 ->170        -0.00011
      31 ->171         0.00013
      31 ->182        -0.00091
      31 ->183         0.00019
      31 ->228         0.00022
      32 -> 58         0.00069
      32 -> 60         0.00026
      32 -> 61        -0.00019
      32 -> 62         0.00058
      32 -> 63         0.00048
      32 -> 64         0.00088
      32 -> 73        -0.00041
      32 -> 78        -0.00010
      32 -> 80        -0.00010
      32 -> 81         0.00026
      32 -> 84         0.00012
      32 -> 89        -0.00013
      32 -> 93        -0.00015
      32 -> 97        -0.00016
      32 -> 99         0.00029
      32 ->102        -0.00050
      32 ->103         0.00019
      32 ->104        -0.00013
      32 ->108         0.00030
      32 ->110         0.00012
      32 ->111         0.00033
      32 ->120         0.00012
      32 ->121         0.00025
      32 ->122        -0.00012
      32 ->130        -0.00028
      32 ->132        -0.00019
      32 ->133         0.00138
      32 ->134         0.00052
      32 ->137        -0.00039
      32 ->141        -0.00028
      32 ->154        -0.00032
      32 ->155         0.00012
      32 ->159         0.00040
      32 ->161        -0.00167
      32 ->164        -0.00023
      32 ->165        -0.00029
      32 ->166         0.00029
      32 ->167        -0.00017
      32 ->168         0.00018
      32 ->169         0.00018
      32 ->182        -0.00032
      32 ->228         0.00013
      33 -> 57        -0.00016
      33 -> 59        -0.00074
      33 -> 61         0.00058
      33 -> 65        -0.00012
      33 -> 66         0.00025
      33 -> 67        -0.00013
      33 -> 69        -0.00049
      33 -> 70        -0.00061
      33 -> 72        -0.00013
      33 -> 74         0.00041
      33 -> 79         0.00018
      33 -> 83        -0.00027
      33 -> 86        -0.00020
      33 -> 87        -0.00046
      33 -> 91        -0.00030
      33 -> 94        -0.00025
      33 -> 96         0.00026
      33 ->103        -0.00021
      33 ->105        -0.00018
      33 ->106         0.00011
      33 ->110        -0.00015
      33 ->115        -0.00016
      33 ->116         0.00011
      33 ->117        -0.00018
      33 ->124         0.00012
      33 ->125         0.00023
      33 ->131         0.00021
      33 ->135         0.00028
      33 ->140         0.00025
      33 ->142        -0.00020
      33 ->145         0.00017
      33 ->174        -0.00015
      33 ->203        -0.00010
      34 -> 57         0.00274
      34 -> 59         0.00267
      34 -> 60        -0.00015
      34 -> 61        -0.00210
      34 -> 62        -0.00035
      34 -> 65        -0.00080
      34 -> 66        -0.00050
      34 -> 67         0.00124
      34 -> 68         0.00026
      34 -> 70         0.00063
      34 -> 72        -0.00029
      34 -> 74         0.00043
      34 -> 77        -0.00030
      34 -> 86         0.00021
      34 -> 87        -0.00030
      34 -> 90        -0.00013
      34 -> 96        -0.00032
      34 ->103         0.00013
      34 ->105        -0.00010
      34 ->107         0.00021
      34 ->110        -0.00021
      34 ->117         0.00016
      34 ->128         0.00011
      34 ->140         0.00016
      34 ->142        -0.00019
      34 ->144         0.00012
      34 ->156        -0.00019
      34 ->175        -0.00022
      34 ->220         0.00013
      35 -> 58        -0.00168
      35 -> 60        -0.00083
      35 -> 61        -0.00022
      35 -> 62         0.00069
      35 -> 63         0.00024
      35 -> 64        -0.00026
      35 -> 68        -0.00014
      35 -> 71         0.00026
      35 -> 73         0.00049
      35 -> 75         0.00011
      35 -> 76         0.00021
      35 -> 78         0.00019
      35 -> 80         0.00015
      35 -> 85        -0.00037
      35 -> 95         0.00029
      35 -> 99        -0.00019
      35 ->100        -0.00030
      35 ->102         0.00025
      35 ->108        -0.00034
      35 ->110        -0.00010
      35 ->111        -0.00030
      35 ->113        -0.00014
      35 ->119        -0.00016
      35 ->122         0.00014
      35 ->132         0.00024
      35 ->133        -0.00119
      35 ->134        -0.00031
      35 ->137         0.00031
      35 ->141         0.00013
      35 ->154         0.00032
      35 ->155        -0.00011
      35 ->159        -0.00034
      35 ->161         0.00141
      35 ->164         0.00017
      35 ->165         0.00024
      35 ->166        -0.00022
      35 ->167         0.00013
      35 ->168        -0.00015
      35 ->169        -0.00015
      35 ->182         0.00018
      35 ->183        -0.00012
      35 ->228        -0.00013
      36 -> 57         0.00321
      36 -> 59         0.00360
      36 -> 61        -0.00314
      36 -> 62        -0.00050
      36 -> 64        -0.00012
      36 -> 65         0.00062
      36 -> 66         0.00030
      36 -> 67         0.00086
      36 -> 68         0.00015
      36 -> 69         0.00043
      36 -> 70        -0.00026
      36 -> 72        -0.00045
      36 -> 74         0.00035
      36 -> 77        -0.00018
      36 -> 79         0.00024
      36 -> 82        -0.00022
      36 -> 83        -0.00012
      36 -> 87         0.00021
      36 ->110        -0.00016
      36 ->115        -0.00012
      36 ->117         0.00059
      36 ->118        -0.00034
      36 ->119         0.00011
      36 ->120        -0.00011
      36 ->123         0.00014
      36 ->124        -0.00015
      36 ->148        -0.00010
      36 ->156        -0.00058
      36 ->174         0.00013
      36 ->175        -0.00105
      36 ->179        -0.00032
      36 ->180        -0.00010
      36 ->181         0.00015
      36 ->188        -0.00023
      36 ->189        -0.00051
      36 ->190         0.00034
      36 ->208         0.00028
      36 ->211         0.00012
      36 ->214         0.00013
      36 ->219        -0.00012
      36 ->220         0.00069
      37 -> 57         0.00963
      37 -> 59         0.00899
      37 -> 61        -0.00727
      37 -> 62        -0.00112
      37 -> 64        -0.00025
      37 -> 65         0.00109
      37 -> 66         0.00032
      37 -> 67         0.00201
      37 -> 68         0.00033
      37 -> 69         0.00115
      37 -> 70         0.00011
      37 -> 71        -0.00015
      37 -> 72        -0.00077
      37 -> 74         0.00057
      37 -> 77        -0.00063
      37 -> 79         0.00042
      37 -> 82        -0.00051
      37 -> 83        -0.00018
      37 -> 86        -0.00022
      37 -> 87         0.00021
      37 -> 88        -0.00021
      37 -> 90        -0.00049
      37 -> 91         0.00021
      37 -> 94        -0.00014
      37 -> 96        -0.00038
      37 ->102         0.00010
      37 ->103         0.00034
      37 ->104         0.00014
      37 ->105        -0.00011
      37 ->107         0.00037
      37 ->108        -0.00011
      37 ->109         0.00033
      37 ->110        -0.00046
      37 ->111         0.00023
      37 ->115         0.00016
      37 ->117        -0.00010
      37 ->118         0.00016
      37 ->128        -0.00016
      37 ->131         0.00024
      37 ->135         0.00011
      37 ->136         0.00012
      37 ->138        -0.00017
      37 ->139        -0.00011
      37 ->140         0.00082
      37 ->142        -0.00034
      37 ->145        -0.00018
      37 ->150        -0.00012
      37 ->162        -0.00015
      37 ->164        -0.00010
      37 ->175         0.00051
      37 ->179         0.00019
      37 ->181        -0.00015
      37 ->188         0.00018
      37 ->189         0.00039
      37 ->190        -0.00025
      37 ->208        -0.00014
      37 ->220        -0.00037
      38 -> 58         0.00033
      38 -> 60        -0.00042
      38 -> 62         0.00042
      38 -> 63         0.00069
      38 -> 64        -0.00036
      38 -> 68        -0.00010
      38 -> 71        -0.00011
      38 -> 73         0.00080
      38 -> 75         0.00068
      38 -> 76        -0.00098
      38 -> 80         0.00055
      38 -> 81         0.00030
      38 -> 84        -0.00046
      38 -> 93        -0.00016
      38 -> 95         0.00019
      38 -> 97         0.00017
      38 -> 98         0.00029
      38 -> 99        -0.00031
      38 ->100        -0.00012
      38 ->102         0.00016
      38 ->108        -0.00018
      38 ->111        -0.00024
      38 ->113        -0.00011
      38 ->126        -0.00013
      38 ->127        -0.00013
      38 ->132         0.00015
      38 ->133        -0.00088
      38 ->134        -0.00033
      38 ->137         0.00029
      38 ->141         0.00017
      38 ->154         0.00019
      38 ->159        -0.00031
      38 ->161         0.00096
      38 ->164         0.00014
      38 ->165         0.00019
      38 ->166        -0.00017
      38 ->168        -0.00011
      38 ->182        -0.00031
      38 ->183         0.00011
      39 -> 58         0.00146
      39 -> 60         0.00058
      39 -> 62        -0.00024
      39 -> 63         0.00020
      39 -> 64         0.00013
      39 -> 67         0.00017
      39 -> 68        -0.00078
      39 -> 71         0.00067
      39 -> 73        -0.00037
      39 -> 75        -0.00077
      39 -> 76        -0.00076
      39 -> 78        -0.00014
      39 -> 80         0.00034
      39 -> 84         0.00029
      39 -> 92         0.00011
      39 -> 93         0.00013
      39 -> 95        -0.00017
      39 -> 97         0.00014
      39 ->100         0.00017
      39 ->101        -0.00024
      39 ->102        -0.00022
      39 ->108         0.00021
      39 ->111         0.00014
      39 ->121         0.00010
      39 ->130        -0.00012
      39 ->132        -0.00016
      39 ->133         0.00060
      39 ->134         0.00026
      39 ->154        -0.00023
      39 ->159         0.00022
      39 ->161        -0.00073
      39 ->166         0.00011
      39 ->169         0.00011
      40 -> 57         0.01197
      40 -> 59         0.00876
      40 -> 61        -0.00601
      40 -> 62        -0.00087
      40 -> 64        -0.00016
      40 -> 65         0.00063
      40 -> 66        -0.00014
      40 -> 67         0.00170
      40 -> 68         0.00027
      40 -> 69         0.00120
      40 -> 70         0.00030
      40 -> 71        -0.00016
      40 -> 72        -0.00098
      40 -> 74         0.00060
      40 -> 77         0.00011
      40 -> 79         0.00012
      40 -> 86        -0.00027
      40 -> 87        -0.00019
      40 -> 88         0.00013
      40 -> 90         0.00033
      40 -> 94         0.00032
      40 -> 96         0.00031
      40 ->103        -0.00018
      40 ->107        -0.00016
      40 ->109        -0.00016
      40 ->117        -0.00014
      40 ->120        -0.00010
      40 ->136         0.00011
      40 ->138        -0.00016
      40 ->140         0.00056
      40 ->142        -0.00031
      40 ->156        -0.00012
      40 ->164        -0.00010
      40 ->208         0.00010
      41 -> 57        -0.00429
      41 -> 59        -0.00419
      41 -> 61         0.00368
      41 -> 62         0.00058
      41 -> 65         0.00037
      41 -> 66         0.00037
      41 -> 67        -0.00089
      41 -> 68        -0.00013
      41 -> 69        -0.00047
      41 -> 70         0.00027
      41 -> 72         0.00020
      41 -> 74        -0.00015
      41 -> 77         0.00041
      41 -> 78         0.00013
      41 -> 79        -0.00053
      41 -> 82        -0.00049
      41 -> 86        -0.00012
      41 -> 87        -0.00041
      41 -> 88         0.00062
      41 -> 90         0.00051
      41 -> 91        -0.00031
      41 -> 96        -0.00035
      41 ->104         0.00011
      41 ->106        -0.00013
      41 ->107         0.00023
      41 ->108        -0.00016
      41 ->109        -0.00026
      41 ->128        -0.00023
      41 ->136         0.00015
      41 ->140        -0.00036
      41 ->175        -0.00010
      42 -> 57         0.00623
      42 -> 58         0.00014
      42 -> 59         0.00435
      42 -> 61        -0.00329
      42 -> 62        -0.00047
      42 -> 64        -0.00017
      42 -> 65         0.00126
      42 -> 66        -0.00059
      42 -> 67         0.00155
      42 -> 68         0.00034
      42 -> 69        -0.00019
      42 -> 72        -0.00031
      42 -> 74        -0.00016
      42 -> 79         0.00027
      42 -> 82         0.00029
      42 -> 83         0.00011
      42 -> 88         0.00014
      42 -> 90         0.00017
      42 -> 94         0.00018
      42 -> 96        -0.00022
      42 ->105        -0.00011
      42 ->140         0.00027
      42 ->142        -0.00014
      43 -> 57         0.00151
      43 -> 58        -0.00270
      43 -> 59         0.00138
      43 -> 60        -0.00154
      43 -> 61        -0.00083
      43 -> 62        -0.00072
      43 -> 63         0.00144
      43 -> 64         0.00041
      43 -> 65         0.00018
      43 -> 67         0.00046
      43 -> 68        -0.00051
      43 -> 70        -0.00017
      43 -> 71         0.00064
      43 -> 73         0.00113
      43 -> 75        -0.00064
      43 -> 76        -0.00041
      43 -> 78         0.00015
      43 -> 80        -0.00020
      43 -> 81         0.00021
      43 -> 92        -0.00013
      43 -> 93         0.00023
      43 -> 97        -0.00016
      43 -> 99        -0.00016
      43 ->102         0.00059
      43 ->103        -0.00022
      43 ->107        -0.00015
      43 ->108        -0.00035
      43 ->110        -0.00016
      43 ->111        -0.00022
      43 ->113        -0.00013
      43 ->116         0.00017
      43 ->119        -0.00014
      43 ->122         0.00010
      43 ->129         0.00014
      43 ->130         0.00011
      43 ->132         0.00021
      43 ->133        -0.00106
      43 ->134        -0.00056
      43 ->137         0.00019
      43 ->139        -0.00016
      43 ->141         0.00010
      43 ->146         0.00013
      43 ->149        -0.00018
      43 ->154         0.00040
      43 ->155        -0.00016
      43 ->159        -0.00035
      43 ->161         0.00129
      43 ->164         0.00018
      43 ->165         0.00021
      43 ->166        -0.00021
      43 ->167         0.00015
      43 ->168        -0.00012
      43 ->182        -0.00019
      43 ->183         0.00011
      43 ->228        -0.00011
      44 -> 57        -0.00436
      44 -> 58        -0.00088
      44 -> 59        -0.00444
      44 -> 60        -0.00042
      44 -> 61         0.00301
      44 -> 62         0.00028
      44 -> 63         0.00036
      44 -> 64         0.00025
      44 -> 65        -0.00036
      44 -> 66         0.00023
      44 -> 67        -0.00052
      44 -> 68        -0.00022
      44 -> 69         0.00015
      44 -> 70         0.00081
      44 -> 71         0.00017
      44 -> 72        -0.00038
      44 -> 73         0.00033
      44 -> 74        -0.00033
      44 -> 75        -0.00028
      44 -> 77         0.00042
      44 -> 78         0.00011
      44 -> 79        -0.00037
      44 -> 81         0.00013
      44 -> 82        -0.00017
      44 -> 86         0.00021
      44 -> 88         0.00014
      44 -> 91        -0.00023
      44 -> 94         0.00016
      44 ->102         0.00022
      44 ->107         0.00011
      44 ->108        -0.00017
      44 ->109        -0.00012
      44 ->110         0.00016
      44 ->115        -0.00017
      44 ->116        -0.00015
      44 ->119        -0.00011
      44 ->120         0.00011
      44 ->123        -0.00014
      44 ->131        -0.00011
      44 ->133        -0.00029
      44 ->134        -0.00015
      44 ->140        -0.00031
      44 ->154         0.00012
      44 ->161         0.00036
      45 -> 57        -0.00074
      45 -> 58         0.00050
      45 -> 59         0.00146
      45 -> 60         0.00022
      45 -> 61        -0.00112
      45 -> 62        -0.00015
      45 -> 63        -0.00013
      45 -> 64        -0.00012
      45 -> 69         0.00066
      45 -> 70         0.00076
      45 -> 72         0.00054
      45 -> 73        -0.00016
      45 -> 74        -0.00018
      45 -> 75         0.00015
      45 -> 77         0.00040
      45 -> 78         0.00015
      45 -> 79        -0.00060
      45 -> 82        -0.00013
      45 -> 83         0.00037
      45 -> 86         0.00011
      45 -> 88        -0.00024
      45 -> 90         0.00026
      45 -> 96        -0.00023
      45 ->102        -0.00011
      45 ->105         0.00011
      45 ->106        -0.00011
      45 ->109        -0.00017
      45 ->115         0.00016
      45 ->117         0.00017
      45 ->118         0.00011
      45 ->123        -0.00012
      45 ->133         0.00014
      45 ->140        -0.00013
      45 ->161        -0.00018
      46 -> 57        -0.00285
      46 -> 58        -0.00029
      46 -> 59        -0.00079
      46 -> 60        -0.00010
      46 -> 61         0.00087
      46 -> 62         0.00023
      46 -> 65         0.00038
      46 -> 66        -0.00081
      46 -> 67        -0.00051
      46 -> 68        -0.00012
      46 -> 69         0.00014
      46 -> 70         0.00029
      46 -> 72        -0.00020
      46 -> 74         0.00074
      46 -> 76         0.00014
      46 -> 77        -0.00145
      46 -> 79        -0.00013
      46 -> 81         0.00010
      46 -> 82        -0.00061
      46 -> 83         0.00116
      46 -> 86        -0.00020
      46 -> 88         0.00024
      46 -> 91        -0.00016
      46 -> 94        -0.00025
      46 -> 96         0.00018
      46 ->102         0.00016
      46 ->103         0.00043
      46 ->104         0.00019
      46 ->106         0.00017
      46 ->107        -0.00029
      46 ->131         0.00015
      46 ->136        -0.00022
      46 ->140        -0.00016
      46 ->142        -0.00018
      46 ->145        -0.00015
      46 ->150         0.00012
      46 ->194         0.00010
      47 -> 57        -0.00088
      47 -> 58         0.00218
      47 -> 59        -0.00131
      47 -> 60         0.00080
      47 -> 61         0.00090
      47 -> 62         0.00013
      47 -> 63         0.00043
      47 -> 64         0.00015
      47 -> 71        -0.00033
      47 -> 73        -0.00059
      47 -> 74         0.00013
      47 -> 75         0.00049
      47 -> 76        -0.00126
      47 -> 77        -0.00020
      47 -> 78         0.00017
      47 -> 80        -0.00033
      47 -> 81        -0.00023
      47 -> 82        -0.00011
      47 -> 84         0.00014
      47 -> 85        -0.00035
      47 -> 92         0.00020
      47 -> 93         0.00011
      47 -> 97         0.00029
      47 -> 98         0.00014
      47 -> 99         0.00015
      47 ->100         0.00024
      47 ->102        -0.00014
      47 ->108         0.00043
      47 ->111         0.00016
      47 ->121        -0.00012
      47 ->133         0.00052
      47 ->134         0.00039
      47 ->139         0.00012
      47 ->141        -0.00020
      47 ->147        -0.00017
      47 ->148         0.00019
      47 ->151        -0.00010
      47 ->152        -0.00011
      47 ->154        -0.00026
      47 ->155         0.00019
      47 ->159         0.00018
      47 ->161        -0.00072
      47 ->164        -0.00013
      47 ->165        -0.00015
      47 ->182         0.00011
      48 -> 57         0.00385
      48 -> 59         0.00147
      48 -> 61        -0.00155
      48 -> 62        -0.00040
      48 -> 65        -0.00137
      48 -> 66         0.00158
      48 -> 70         0.00032
      48 -> 71         0.00011
      48 -> 72         0.00070
      48 -> 74         0.00066
      48 -> 77         0.00104
      48 -> 78        -0.00033
      48 -> 79         0.00141
      48 -> 82        -0.00074
      48 -> 83         0.00026
      48 -> 86         0.00024
      48 -> 87         0.00013
      48 -> 88         0.00012
      48 ->105        -0.00046
      48 ->106        -0.00022
      48 ->135        -0.00011
      48 ->136         0.00013
      48 ->138         0.00031
      48 ->139         0.00010
      48 ->140         0.00016
      48 ->144        -0.00012
      49 -> 57         0.01665
      49 -> 59         0.01508
      49 -> 61        -0.00866
      49 -> 62        -0.00050
      49 -> 63         0.00013
      49 -> 64         0.00010
      49 -> 65         0.00012
      49 -> 66        -0.00022
      49 -> 67        -0.00113
      49 -> 68        -0.00020
      49 -> 69        -0.00049
      49 -> 70         0.00028
      49 -> 72        -0.00011
      49 -> 74        -0.00036
      49 -> 77         0.00061
      49 -> 78        -0.00017
      49 -> 79         0.00077
      49 -> 83         0.00027
      49 -> 84         0.00018
      49 -> 87         0.00048
      49 -> 88        -0.00041
      49 -> 91        -0.00017
      49 -> 93         0.00011
      49 -> 94         0.00034
      49 ->105        -0.00012
      49 ->106         0.00016
      49 ->109         0.00014
      49 ->110         0.00020
      49 ->114        -0.00020
      49 ->115         0.00031
      49 ->116        -0.00019
      49 ->120        -0.00017
      49 ->121         0.00011
      49 ->135        -0.00019
      49 ->136         0.00012
      49 ->140         0.00043
      49 ->157         0.00014
      49 ->160         0.00017
      50 -> 58         0.00344
      50 -> 60         0.00102
      50 -> 62         0.00010
      50 -> 63         0.00145
      50 -> 64        -0.00070
      50 -> 65        -0.00010
      50 -> 68         0.00045
      50 -> 71         0.00049
      50 -> 73         0.00047
      50 -> 75         0.00024
      50 -> 76        -0.00076
      50 -> 78         0.00026
      50 -> 80         0.00047
      50 -> 81        -0.00017
      50 -> 85         0.00049
      50 -> 89         0.00015
      50 -> 95         0.00017
      50 -> 97         0.00020
      50 -> 98        -0.00013
      50 -> 99         0.00051
      50 ->100         0.00080
      50 ->102        -0.00142
      50 ->103         0.00060
      50 ->104        -0.00041
      50 ->107         0.00030
      50 ->108         0.00137
      50 ->110         0.00042
      50 ->111         0.00118
      50 ->112        -0.00034
      50 ->113         0.00051
      50 ->116        -0.00017
      50 ->118         0.00010
      50 ->119         0.00016
      50 ->120        -0.00012
      50 ->126         0.00029
      50 ->127         0.00024
      50 ->129        -0.00023
      50 ->130        -0.00032
      50 ->132        -0.00090
      50 ->133         0.00518
      50 ->134         0.00248
      50 ->135        -0.00035
      50 ->136        -0.00016
      50 ->137        -0.00155
      50 ->138        -0.00027
      50 ->139         0.00058
      50 ->141        -0.00121
      50 ->142        -0.00013
      50 ->143        -0.00026
      50 ->146         0.00015
      50 ->149         0.00011
      50 ->154        -0.00085
      50 ->155         0.00039
      50 ->157        -0.00019
      50 ->159         0.00128
      50 ->160         0.00017
      50 ->161        -0.00574
      50 ->164        -0.00082
      50 ->165        -0.00106
      50 ->166         0.00100
      50 ->167        -0.00059
      50 ->168         0.00066
      50 ->169         0.00065
      50 ->170        -0.00014
      50 ->171         0.00026
      50 ->172         0.00011
      50 ->182         0.00150
      50 ->183        -0.00033
      50 ->225        -0.00011
      50 ->228         0.00014
      51 -> 58        -0.00065
      51 -> 62        -0.00013
      51 -> 63        -0.00109
      51 -> 64         0.00064
      51 -> 71         0.00027
      51 -> 73        -0.00036
      51 -> 75        -0.00019
      51 -> 76         0.00067
      51 -> 78        -0.00619
      51 -> 79        -0.00147
      51 -> 80        -0.00225
      51 -> 81         0.00189
      51 -> 82         0.00019
      51 -> 84        -0.00051
      51 -> 85        -0.00219
      51 -> 89         0.00122
      51 -> 92         0.00032
      51 -> 95         0.00027
      51 -> 98        -0.00021
      51 -> 99        -0.00037
      51 ->100         0.00034
      51 ->102        -0.00021
      51 ->103         0.00014
      51 ->104        -0.00014
      51 ->108         0.00016
      51 ->113        -0.00196
      51 ->119         0.00012
      51 ->120        -0.00013
      51 ->121        -0.00030
      51 ->122         0.00114
      51 ->133         0.00042
      51 ->134         0.00037
      51 ->136        -0.00015
      51 ->137        -0.00091
      51 ->138         0.00023
      51 ->139        -0.00076
      51 ->141         0.00030
      51 ->143         0.00051
      51 ->144         0.00019
      51 ->146        -0.00029
      51 ->151        -0.00011
      51 ->152        -0.00010
      51 ->159        -0.00018
      51 ->161         0.00024
      51 ->166        -0.00019
      51 ->167         0.00012
      51 ->169         0.00016
      51 ->171         0.00011
      51 ->172         0.00017
      51 ->177        -0.00015
      51 ->191        -0.00030
      51 ->240        -0.00014
      52 -> 57         0.63994
      52 -> 59         0.24592
      52 -> 60        -0.00102
      52 -> 61        -0.10299
      52 -> 62        -0.01208
      52 -> 64        -0.00192
      52 -> 65         0.00728
      52 -> 66         0.00179
      52 -> 67         0.01931
      52 -> 68         0.00351
      52 -> 69         0.00866
      52 -> 70         0.00539
      52 -> 71        -0.00147
      52 -> 72        -0.00840
      52 -> 77         0.00043
      52 -> 78        -0.00020
      52 -> 79         0.00093
      52 -> 83         0.00107
      52 -> 86         0.00021
      52 -> 87         0.00049
      52 -> 88        -0.00114
      52 -> 90         0.00025
      52 -> 91        -0.00063
      52 -> 94         0.00011
      52 -> 96        -0.00017
      52 ->102         0.00016
      52 ->103         0.00060
      52 ->104         0.00019
      52 ->105         0.00056
      52 ->106        -0.00122
      52 ->107         0.00024
      52 ->109         0.00043
      52 ->110         0.00142
      52 ->111        -0.00046
      52 ->112        -0.00034
      52 ->114         0.00103
      52 ->115         0.00017
      52 ->116         0.00051
      52 ->117        -0.00045
      52 ->118        -0.00110
      52 ->119         0.00090
      52 ->120        -0.00145
      52 ->121         0.00080
      52 ->123         0.00076
      52 ->124        -0.00032
      52 ->125         0.00028
      52 ->126        -0.00056
      52 ->127         0.00042
      52 ->130         0.00012
      52 ->131         0.00079
      52 ->135        -0.00159
      52 ->136         0.00184
      52 ->137        -0.00024
      52 ->138        -0.00252
      52 ->139        -0.00148
      52 ->140         0.00952
      52 ->141         0.00066
      52 ->142        -0.00387
      52 ->143         0.00033
      52 ->144        -0.00036
      52 ->145        -0.00084
      52 ->147         0.00014
      52 ->148         0.00016
      52 ->150        -0.00041
      52 ->151        -0.00020
      52 ->152         0.00018
      52 ->153        -0.00011
      52 ->156         0.00050
      52 ->162        -0.00055
      52 ->164        -0.00035
      52 ->165         0.00028
      52 ->175         0.00030
      52 ->179         0.00025
      52 ->181        -0.00021
      52 ->187         0.00013
      52 ->188         0.00045
      52 ->189         0.00100
      52 ->190        -0.00069
      52 ->191         0.00011
      52 ->192        -0.00011
      52 ->197         0.00011
      52 ->199        -0.00011
      52 ->211         0.00019
      52 ->220        -0.00058
      53 -> 57         0.01924
      53 -> 58        -0.00017
      53 -> 59         0.00632
      53 -> 61         0.00324
      53 -> 62         0.00032
      53 -> 65        -0.00027
      53 -> 66        -0.00018
      53 -> 67        -0.00019
      53 -> 69         0.00021
      53 -> 72         0.00062
      53 -> 74        -0.00100
      53 -> 77         0.00057
      53 -> 78        -0.00013
      53 -> 79         0.00048
      53 -> 80        -0.00014
      53 -> 81        -0.00011
      53 -> 82         0.00018
      53 -> 83         0.00071
      53 -> 87         0.00062
      53 -> 88        -0.00036
      53 -> 91        -0.00016
      53 -> 94        -0.00013
      53 -> 96        -0.00025
      53 ->105         0.00022
      53 ->106        -0.00021
      53 ->107        -0.00024
      53 ->109        -0.00022
      53 ->112        -0.00011
      53 ->114         0.00013
      53 ->115         0.00034
      53 ->116        -0.00011
      53 ->117         0.00019
      53 ->120         0.00015
      53 ->135        -0.00018
      53 ->150        -0.00012
      53 ->160        -0.00010
      54 -> 57         0.00051
      54 -> 58         0.00713
      54 -> 59         0.00016
      54 -> 60         0.00233
      54 -> 62         0.00011
      54 -> 63         0.00046
      54 -> 64        -0.00060
      54 -> 67        -0.00011
      54 -> 68         0.00052
      54 -> 71        -0.00011
      54 -> 73        -0.00085
      54 -> 76        -0.00028
      54 -> 78         0.00082
      54 -> 79         0.00021
      54 -> 80         0.00044
      54 -> 81        -0.00044
      54 -> 85         0.00035
      54 -> 92         0.00013
      54 -> 99         0.00041
      54 ->100        -0.00022
      54 ->104         0.00019
      54 ->108        -0.00019
      54 ->111        -0.00020
      54 ->113         0.00039
      54 ->122        -0.00013
      54 ->133        -0.00014
      54 ->137         0.00012
      54 ->166         0.00013
      55 -> 57        -0.00018
      55 -> 58         0.00273
      55 -> 60        -0.00451
      55 -> 63         0.00028
      55 -> 64        -0.00017
      55 -> 71        -0.00014
      55 -> 73         0.00023
      55 -> 75        -0.00011
      55 -> 76        -0.00017
      55 -> 80         0.00018
      55 -> 81         0.00017
      55 -> 84        -0.00021
      55 -> 95        -0.00011
      55 -> 99         0.00019
      55 ->100        -0.00011
      55 ->102         0.00017
      55 ->104        -0.00034
      55 ->111         0.00021
      55 ->161        -0.00010
      55 ->168         0.00019
      56 -> 57         0.12991
      56 -> 59        -0.01457
      56 -> 61         0.00175
      56 -> 64        -0.00011
      56 -> 65         0.00073
      56 -> 66         0.00016
      56 -> 67         0.00249
      56 -> 68         0.00044
      56 -> 69         0.00155
      56 -> 70         0.00121
      56 -> 71        -0.00013
      56 -> 72        -0.00066
      56 -> 74        -0.00032
      56 -> 77         0.00018
      56 -> 78         0.00018
      56 -> 79        -0.00080
      56 -> 80         0.00014
      56 -> 81         0.00011
      56 -> 83         0.00023
      56 -> 84         0.00012
      56 -> 96        -0.00025
      56 ->106         0.00015
      56 ->107         0.00023
      56 ->110         0.00057
      56 ->111        -0.00017
      56 ->114         0.00012
      56 ->115        -0.00017
      56 ->116        -0.00026
      56 ->126         0.00011
      56 ->131        -0.00011
      56 ->140         0.00015
      56 ->142        -0.00019
      56 ->145        -0.00010
      56 ->150        -0.00013
      17 <- 78        -0.00026
      17 <-102        -0.00011
      17 <-108         0.00012
      17 <-133         0.00028
      17 <-134         0.00012
      17 <-161        -0.00011
      17 <-182        -0.00192
      17 <-183         0.00043
      18 <- 59        -0.00011
      18 <- 61         0.00012
      18 <- 77         0.00013
      18 <- 83         0.00012
      18 <- 86        -0.00013
      18 <- 91        -0.00010
      18 <- 94        -0.00015
      18 <-106         0.00015
      18 <-118         0.00012
      18 <-155        -0.00013
      18 <-156         0.00099
      18 <-162        -0.00015
      18 <-174        -0.00016
      18 <-175         0.00175
      18 <-178         0.00015
      18 <-179         0.00054
      18 <-180         0.00015
      18 <-181        -0.00024
      18 <-188         0.00034
      18 <-189         0.00074
      18 <-190        -0.00049
      18 <-208        -0.00022
      18 <-214        -0.00012
      18 <-220        -0.00047
      19 <- 62         0.00030
      19 <- 64         0.00011
      19 <- 93        -0.00014
      20 <- 58         0.00024
      20 <- 60         0.00010
      20 <- 68        -0.00012
      20 <- 73         0.00024
      20 <- 85         0.00025
      20 <- 89        -0.00018
      20 <-100         0.00013
      20 <-104        -0.00013
      20 <-182         0.00028
      21 <- 58        -0.00011
      21 <- 62        -0.00020
      21 <- 75        -0.00020
      21 <- 76         0.00016
      21 <- 81         0.00015
      21 <- 85         0.00012
      21 <- 89         0.00010
      21 <- 93        -0.00013
      21 <-100        -0.00012
      21 <-182        -0.00020
      22 <- 62         0.00014
      22 <- 63         0.00012
      22 <- 75        -0.00025
      22 <- 76         0.00025
      22 <- 80        -0.00014
      22 <- 92        -0.00016
      22 <- 93         0.00012
      22 <- 97        -0.00011
      22 <- 98        -0.00020
      22 <-102         0.00011
      22 <-119         0.00012
      22 <-182        -0.00039
      23 <- 66        -0.00014
      23 <- 67        -0.00016
      23 <- 69        -0.00010
      23 <- 70        -0.00018
      23 <- 74         0.00023
      23 <- 77        -0.00021
      23 <- 83        -0.00011
      23 <- 90        -0.00011
      23 <- 94        -0.00015
      24 <- 65         0.00011
      24 <- 66        -0.00012
      24 <- 70        -0.00026
      24 <- 79         0.00017
      24 <- 96         0.00011
      25 <- 62         0.00019
      25 <- 63        -0.00017
      25 <- 64         0.00014
      25 <- 75        -0.00037
      25 <- 95        -0.00018
      25 <-101        -0.00016
      25 <-113         0.00014
      25 <-182         0.00032
      26 <- 58        -0.00013
      26 <- 62        -0.00019
      26 <- 63        -0.00015
      26 <- 68        -0.00024
      26 <- 71        -0.00019
      26 <- 73        -0.00045
      26 <- 76         0.00026
      26 <- 80        -0.00025
      26 <- 81         0.00019
      26 <- 89        -0.00015
      26 <- 92        -0.00017
      26 <- 95         0.00014
      26 <- 97        -0.00019
      26 <- 98        -0.00012
      26 <- 99         0.00019
      26 <-100        -0.00014
      26 <-101         0.00014
      26 <-113         0.00029
      26 <-132         0.00011
      26 <-182         0.00043
      27 <- 57         0.00019
      27 <- 59         0.00014
      27 <- 61        -0.00014
      27 <- 65         0.00014
      27 <- 66         0.00014
      27 <- 69         0.00018
      27 <- 77         0.00045
      27 <- 82         0.00030
      27 <- 83        -0.00020
      27 <- 91         0.00015
      27 <- 94         0.00020
      27 <- 96        -0.00022
      27 <-103        -0.00016
      27 <-109        -0.00013
      27 <-131        -0.00019
      27 <-135         0.00013
      27 <-136         0.00015
      27 <-175         0.00013
      28 <- 62         0.00026
      28 <- 63        -0.00017
      28 <- 68        -0.00013
      28 <- 71        -0.00015
      28 <- 73        -0.00022
      28 <- 75        -0.00040
      28 <- 85        -0.00033
      28 <- 93         0.00013
      28 <-113         0.00014
      28 <-132        -0.00021
      28 <-134        -0.00012
      28 <-182         0.00046
      29 <- 57         0.00017
      29 <- 59         0.00017
      29 <- 61        -0.00027
      29 <- 65        -0.00011
      29 <- 66        -0.00028
      29 <- 67         0.00025
      29 <- 70        -0.00015
      29 <- 77         0.00051
      29 <- 79         0.00041
      29 <- 83         0.00016
      29 <- 86        -0.00017
      29 <- 87         0.00026
      29 <- 90         0.00021
      29 <- 94         0.00018
      29 <-135        -0.00011
      29 <-136         0.00015
      29 <-138         0.00015
      29 <-175         0.00014
      30 <- 60        -0.00013
      30 <- 62        -0.00015
      30 <- 63         0.00012
      30 <- 64         0.00014
      30 <- 78         0.00022
      30 <- 80        -0.00017
      30 <- 81         0.00036
      30 <- 84        -0.00014
      30 <- 85        -0.00019
      30 <- 89         0.00024
      30 <- 92         0.00026
      30 <- 93        -0.00013
      30 <- 97         0.00012
      30 <- 98         0.00010
      30 <-119        -0.00019
      30 <-132        -0.00018
      30 <-146        -0.00012
      30 <-182         0.00046
      30 <-183        -0.00013
      31 <- 58         0.00015
      31 <- 64        -0.00026
      31 <- 73        -0.00012
      31 <- 76        -0.00010
      31 <- 84        -0.00012
      31 <- 99         0.00012
      31 <-100        -0.00010
      31 <-104         0.00013
      31 <-122        -0.00038
      31 <-133        -0.00021
      31 <-134        -0.00014
      31 <-137         0.00014
      31 <-182        -0.00097
      31 <-183         0.00021
      32 <- 61        -0.00011
      32 <- 62         0.00032
      32 <- 63         0.00025
      32 <- 64         0.00050
      32 <- 73        -0.00027
      32 <- 81         0.00019
      32 <- 93        -0.00012
      32 <- 97        -0.00017
      32 <-100        -0.00022
      32 <-120         0.00012
      32 <-121         0.00020
      32 <-130        -0.00012
      32 <-133        -0.00012
      32 <-134        -0.00012
      32 <-182        -0.00048
      32 <-183         0.00011
      33 <- 57         0.00027
      33 <- 59        -0.00022
      33 <- 61         0.00019
      33 <- 69         0.00012
      33 <- 70         0.00034
      33 <- 74        -0.00049
      33 <- 77         0.00132
      33 <- 78         0.00013
      33 <- 79        -0.00054
      33 <- 82         0.00042
      33 <- 83         0.00095
      33 <- 86        -0.00029
      33 <- 87         0.00080
      33 <- 88        -0.00047
      33 <- 90         0.00011
      33 <- 94         0.00032
      33 <- 96        -0.00088
      33 <-103         0.00013
      33 <-104         0.00021
      33 <-105         0.00060
      33 <-106         0.00046
      33 <-107        -0.00043
      33 <-109        -0.00113
      33 <-110         0.00047
      33 <-111        -0.00020
      33 <-114        -0.00012
      33 <-115        -0.00015
      33 <-117         0.00026
      33 <-118        -0.00021
      33 <-123        -0.00012
      33 <-124         0.00038
      33 <-125         0.00055
      33 <-126        -0.00015
      33 <-127         0.00013
      33 <-131         0.00032
      33 <-135         0.00021
      33 <-136        -0.00053
      33 <-138        -0.00030
      33 <-142        -0.00060
      33 <-144        -0.00013
      33 <-145         0.00052
      33 <-147        -0.00038
      33 <-148        -0.00041
      33 <-150        -0.00081
      33 <-151        -0.00034
      33 <-152         0.00039
      33 <-153        -0.00030
      33 <-173        -0.00063
      33 <-174        -0.00079
      33 <-178        -0.00012
      33 <-179        -0.00059
      33 <-180        -0.00013
      33 <-181        -0.00128
      33 <-184         0.00058
      33 <-185         0.00012
      33 <-187         0.00019
      33 <-192        -0.00014
      33 <-194         0.00010
      33 <-199        -0.00023
      33 <-201        -0.00017
      33 <-202         0.00012
      33 <-203        -0.00112
      33 <-204        -0.00011
      33 <-206        -0.00017
      33 <-241        -0.00012
      33 <-242        -0.00011
      34 <- 57        -0.00018
      34 <- 61         0.00015
      34 <- 65        -0.00061
      34 <- 66        -0.00037
      34 <- 67         0.00019
      34 <- 69        -0.00034
      34 <- 70         0.00027
      34 <- 74         0.00015
      34 <- 77        -0.00014
      34 <- 86         0.00014
      34 <- 87        -0.00015
      34 <- 96        -0.00032
      34 <-107         0.00014
      34 <-117         0.00015
      34 <-144         0.00010
      34 <-175        -0.00020
      34 <-179        -0.00012
      34 <-189        -0.00011
      34 <-220         0.00015
      35 <- 61        -0.00012
      35 <- 62         0.00039
      35 <- 63         0.00018
      35 <- 64        -0.00016
      35 <- 71         0.00018
      35 <- 73         0.00032
      35 <- 75         0.00013
      35 <- 78         0.00015
      35 <- 80         0.00011
      35 <- 85        -0.00028
      35 <- 95         0.00021
      35 <-102        -0.00015
      35 <-113        -0.00010
      35 <-122         0.00011
      35 <-134         0.00021
      35 <-182         0.00038
      35 <-183        -0.00015
      36 <- 57        -0.00012
      36 <- 59        -0.00010
      36 <- 65         0.00019
      36 <- 66         0.00011
      36 <- 70        -0.00034
      36 <- 74         0.00014
      36 <- 77        -0.00012
      36 <- 79         0.00019
      36 <- 82        -0.00013
      36 <- 87         0.00018
      36 <-110        -0.00010
      36 <-115        -0.00016
      36 <-117         0.00047
      36 <-118        -0.00024
      36 <-124        -0.00012
      36 <-140        -0.00013
      36 <-156        -0.00026
      36 <-174         0.00010
      36 <-175        -0.00085
      36 <-179        -0.00028
      36 <-181         0.00014
      36 <-188        -0.00022
      36 <-189        -0.00048
      36 <-190         0.00032
      36 <-208         0.00024
      36 <-211         0.00011
      36 <-214         0.00013
      36 <-219        -0.00011
      36 <-220         0.00066
      37 <- 57        -0.00099
      37 <- 59        -0.00057
      37 <- 61         0.00024
      37 <- 65         0.00023
      37 <- 67        -0.00017
      37 <- 70        -0.00031
      37 <- 74         0.00018
      37 <- 77        -0.00043
      37 <- 79         0.00034
      37 <- 82        -0.00030
      37 <- 83        -0.00012
      37 <- 86        -0.00015
      37 <- 87         0.00022
      37 <- 88        -0.00013
      37 <- 90        -0.00034
      37 <- 94        -0.00023
      37 <- 96        -0.00030
      37 <-103         0.00021
      37 <-107         0.00028
      37 <-109         0.00032
      37 <-110        -0.00018
      37 <-111         0.00012
      37 <-118         0.00015
      37 <-128        -0.00012
      37 <-131         0.00016
      37 <-135         0.00016
      37 <-156         0.00014
      37 <-175         0.00033
      37 <-179         0.00011
      37 <-188         0.00012
      37 <-189         0.00025
      37 <-190        -0.00015
      37 <-208        -0.00012
      37 <-220        -0.00027
      38 <- 60        -0.00026
      38 <- 62         0.00021
      38 <- 63         0.00035
      38 <- 64        -0.00019
      38 <- 73         0.00050
      38 <- 75         0.00046
      38 <- 76        -0.00063
      38 <- 80         0.00038
      38 <- 81         0.00020
      38 <- 84        -0.00032
      38 <- 93        -0.00012
      38 <- 95         0.00014
      38 <- 97         0.00015
      38 <- 98         0.00023
      38 <- 99        -0.00016
      38 <-133         0.00011
      39 <- 58        -0.00018
      39 <- 60        -0.00020
      39 <- 62        -0.00013
      39 <- 68        -0.00043
      39 <- 71         0.00036
      39 <- 73        -0.00022
      39 <- 75        -0.00049
      39 <- 76        -0.00048
      39 <- 80         0.00024
      39 <- 84         0.00018
      39 <- 92         0.00011
      39 <- 95        -0.00013
      39 <-101        -0.00020
      39 <-182        -0.00017
      40 <- 57        -0.00083
      40 <- 59        -0.00054
      40 <- 61         0.00035
      40 <- 66        -0.00021
      40 <- 67        -0.00026
      40 <- 70        -0.00018
      40 <- 74         0.00019
      40 <- 86        -0.00017
      40 <- 87        -0.00012
      40 <- 90         0.00026
      40 <- 91        -0.00011
      40 <- 94         0.00015
      40 <- 96         0.00023
      40 <-103        -0.00016
      40 <-107        -0.00011
      41 <- 57         0.00047
      41 <- 59         0.00036
      41 <- 61         0.00018
      41 <- 65         0.00035
      41 <- 66         0.00025
      41 <- 67        -0.00011
      41 <- 70         0.00037
      41 <- 77         0.00035
      41 <- 78         0.00010
      41 <- 79        -0.00041
      41 <- 82        -0.00032
      41 <- 87        -0.00024
      41 <- 88         0.00041
      41 <- 90         0.00035
      41 <- 91        -0.00016
      41 <- 96        -0.00037
      41 <-104         0.00010
      41 <-107         0.00016
      41 <-108        -0.00011
      41 <-109        -0.00030
      41 <-128        -0.00018
      41 <-136         0.00017
      42 <- 57        -0.00044
      42 <- 59        -0.00049
      42 <- 65         0.00051
      42 <- 66        -0.00036
      42 <- 67         0.00033
      42 <- 69        -0.00041
[...]
      56 <-134         0.00022
      56 <-136         0.00011
      56 <-141        -0.00014
      56 <-143         0.00026
      56 <-144        -0.00013
      56 <-151         0.00034
      56 <-152         0.00015
      56 <-153        -0.00014
      56 <-154         0.00014
      56 <-155        -0.00074
      56 <-159        -0.00059
      56 <-161        -0.00028
      56 <-166        -0.00040
      56 <-168         0.00090
      56 <-169        -0.00078
      56 <-170         0.00017
      56 <-171         0.00045
      56 <-178        -0.00012
      56 <-200        -0.00022
      56 <-202        -0.00019
      56 <-206        -0.00023
      56 <-209        -0.00028
      56 <-210         0.00024
 SavETr:  write IOETrn=   770 NScale= 10 NData=  16 NLR=1 NState=    5 LETran=     100.

 **********************************************************************

            Population analysis using the SCF density.

 **********************************************************************

 Orbital symmetries:
       Occupied  (A) (A) (A) (A) (A) (A) (A) (A) (A) (A) (A) (A)
                 (A) (A) (A) (A) (A) (A) (A) (A) (A) (A) (A) (A)
                 (A) (A) (A) (A) (A) (A) (A) (A) (A) (A) (A) (A)
                 (A) (A) (A) (A) (A) (A) (A) (A) (A) (A) (A) (A)
                 (A) (A) (A) (A) (A) (A) (A) (A)
       Virtual   (A) (A) (A) (A) (A) (A) (A) (A) (A) (A) (A) (A)
                 (A) (A) (A) (A) (A) (A) (A) (A) (A) (A) (A) (A)
                 (A) (A) (A) (A) (A) (A) (A) (A) (A) (A) (A) (A)
                 (A) (A) (A) (A) (A) (A) (A) (A) (A) (A) (A) (A)
                 (A) (A) (A) (A) (A) (A) (A) (A) (A) (A) (A) (A)
                 (A) (A) (A) (A) (A) (A) (A) (A) (A) (A) (A) (A)
                 (A) (A) (A) (A) (A) (A) (A) (A) (A) (A) (A) (A)
                 (A) (A) (A) (A) (A) (A) (A) (A) (A) (A) (A) (A)
                 (A) (A) (A) (A) (A) (A) (A) (A) (A) (A) (A) (A)
                 (A) (A) (A) (A) (A) (A) (A) (A) (A) (A) (A) (A)
                 (A) (A) (A) (A) (A) (A) (A) (A) (A) (A) (A) (A)
                 (A) (A) (A) (A) (A) (A) (A) (A) (A) (A) (A) (A)
                 (A) (A) (A) (A) (A) (A) (A) (A) (A) (A) (A) (A)
                 (A) (A) (A) (A) (A) (A) (A) (A) (A) (A) (A) (A)
                 (A) (A) (A) (A) (A) (A) (A) (A) (A) (A) (A) (A)
                 (A) (A) (A) (A) (A) (A) (A) (A) (A) (A) (A) (A)
                 (A) (A) (A) (A) (A) (A) (A) (A) (A) (A) (A) (A)
 The electronic state is 1-A.
 Alpha  occ. eigenvalues --  -19.24632 -19.24629 -14.64437 -14.42616 -10.31885
 Alpha  occ. eigenvalues --  -10.31744 -10.29617 -10.28774 -10.28768 -10.28075
 Alpha  occ. eigenvalues --  -10.28062 -10.27548 -10.27536 -10.27433 -10.26826
 Alpha  occ. eigenvalues --  -10.26820  -1.29846  -1.12161  -1.01317  -0.97128
 Alpha  occ. eigenvalues --   -0.93548  -0.88646  -0.84864  -0.83484  -0.82351
 Alpha  occ. eigenvalues --   -0.76233  -0.71448  -0.68776  -0.68740  -0.65574
 Alpha  occ. eigenvalues --   -0.62723  -0.60525  -0.59791  -0.59310  -0.57562
 Alpha  occ. eigenvalues --   -0.57350  -0.53580  -0.52876  -0.51990  -0.50885
 Alpha  occ. eigenvalues --   -0.50233  -0.49362  -0.48169  -0.46467  -0.45059
 Alpha  occ. eigenvalues --   -0.43029  -0.42710  -0.40694  -0.39056  -0.36655
 Alpha  occ. eigenvalues --   -0.36221  -0.35014  -0.32853  -0.32534  -0.31585
 Alpha  occ. eigenvalues --   -0.25710
 Alpha virt. eigenvalues --   -0.03775   0.02805   0.03355   0.03900   0.08886
 Alpha virt. eigenvalues --    0.11926   0.13979   0.15243   0.15626   0.17947
 Alpha virt. eigenvalues --    0.19953   0.20367   0.21673   0.22822   0.23427
 Alpha virt. eigenvalues --    0.24022   0.25210   0.27179   0.29473   0.29918
 Alpha virt. eigenvalues --    0.33217   0.33941   0.33982   0.36626   0.37923
 Alpha virt. eigenvalues --    0.38110   0.40720   0.42657   0.43777   0.45259
 Alpha virt. eigenvalues --    0.53002   0.54994   0.55393   0.56691   0.57937
 Alpha virt. eigenvalues --    0.58551   0.58898   0.61337   0.61494   0.62183
 Alpha virt. eigenvalues --    0.62569   0.63459   0.63680   0.64114   0.64971
 Alpha virt. eigenvalues --    0.65235   0.65469   0.66070   0.67551   0.67837
 Alpha virt. eigenvalues --    0.70267   0.71089   0.71861   0.73311   0.73798
 Alpha virt. eigenvalues --    0.76100   0.77351   0.78688   0.79671   0.82909
 Alpha virt. eigenvalues --    0.83705   0.84403   0.85314   0.86386   0.87621
 Alpha virt. eigenvalues --    0.88550   0.88773   0.90321   0.91624   0.92946
 Alpha virt. eigenvalues --    0.93094   0.94171   0.95085   0.96441   0.98715
 Alpha virt. eigenvalues --    0.98963   1.01368   1.02590   1.03303   1.04204
 Alpha virt. eigenvalues --    1.04759   1.05686   1.05931   1.07230   1.08527
 Alpha virt. eigenvalues --    1.09478   1.12045   1.15246   1.16662   1.17126
 Alpha virt. eigenvalues --    1.20815   1.21012   1.23933   1.24989   1.25990
 Alpha virt. eigenvalues --    1.26606   1.29964   1.32860   1.34773   1.35346
 Alpha virt. eigenvalues --    1.39537   1.42120   1.43392   1.43971   1.46848
 Alpha virt. eigenvalues --    1.49026   1.50060   1.52617   1.52765   1.54175
 Alpha virt. eigenvalues --    1.54674   1.55660   1.56315   1.56776   1.58544
 Alpha virt. eigenvalues --    1.62920   1.70178   1.77314   1.78960   1.79251
 Alpha virt. eigenvalues --    1.82446   1.83606   1.83950   1.85593   1.87709
 Alpha virt. eigenvalues --    1.88831   1.89002   1.91146   1.91658   1.95935
 Alpha virt. eigenvalues --    1.97412   1.98378   1.99345   2.01920   2.02577
 Alpha virt. eigenvalues --    2.03633   2.04832   2.08075   2.11124   2.11149
 Alpha virt. eigenvalues --    2.13869   2.14818   2.16989   2.19270   2.19731
 Alpha virt. eigenvalues --    2.21103   2.21260   2.22017   2.24902   2.25439
 Alpha virt. eigenvalues --    2.27453   2.30657   2.32951   2.35372   2.36767
 Alpha virt. eigenvalues --    2.38393   2.40744   2.46260   2.46641   2.50162
 Alpha virt. eigenvalues --    2.53123   2.55170   2.55982   2.59716   2.62687
 Alpha virt. eigenvalues --    2.65892   2.66319   2.67827   2.70327   2.71982
 Alpha virt. eigenvalues --    2.75087   2.78647   2.80198   2.83398   2.83594
 Alpha virt. eigenvalues --    2.84581   2.90236   2.93631   2.95023   2.97223
 Alpha virt. eigenvalues --    2.98351   3.04720   3.06255   3.14412   3.20672
 Alpha virt. eigenvalues --    3.30272   3.43975   3.53659   3.79858   3.89679
 Alpha virt. eigenvalues --    3.98184   4.04622   4.14743   4.15730   4.17201
 Alpha virt. eigenvalues --    4.18129   4.18747   4.23538   4.38295   4.39360
 Alpha virt. eigenvalues --    4.39653   4.52202   4.72781   4.84198
          Condensed to atoms (all electrons):
               1          2          3          4          5          6
     1  C    4.978279   0.522437  -0.028046  -0.044943  -0.045571   0.546156
     2  C    0.522437   4.956492   0.530677  -0.050145  -0.044532  -0.018275
     3  C   -0.028046   0.530677   4.768022   0.530116  -0.027986  -0.025979
     4  C   -0.044943  -0.050145   0.530116   4.957299   0.522018  -0.017668
     5  C   -0.045571  -0.044532  -0.027986   0.522018   4.978884   0.545816
     6  C    0.546156  -0.018275  -0.025979  -0.017668   0.545816   4.456637
     7  H    0.354156  -0.033163   0.003053   0.000517   0.005310  -0.042258
     8  H   -0.037334   0.353896  -0.039291   0.005661   0.000553   0.003290
     9  H    0.000545   0.005672  -0.039141   0.354032  -0.037436   0.003256
    10  H    0.005281   0.000537   0.003067  -0.033134   0.354257  -0.042280
    11  C    0.005799  -0.046378   0.357877  -0.046590   0.005819   0.000715
    12  C   -0.000141   0.005826  -0.048677  -0.012598   0.000337  -0.000003
    13  C    0.000351  -0.012665  -0.048476   0.005894  -0.000149  -0.000003
    14  C    0.000002  -0.000164   0.005605   0.000322  -0.000004   0.000000
    15  H   -0.000007  -0.000044  -0.009255   0.005244   0.000042  -0.000003
    16  C   -0.000003   0.000313   0.005536  -0.000163   0.000002  -0.000000
    17  H    0.000055   0.005166  -0.009151  -0.000037  -0.000005  -0.000009
    18  C   -0.000000  -0.000001   0.000450  -0.000002  -0.000000   0.000000
    19  H   -0.000000   0.000001  -0.000112  -0.000001  -0.000000  -0.000000
    20  H   -0.000000  -0.000001  -0.000111   0.000001  -0.000000  -0.000000
    21  N    0.000000   0.000000  -0.000001   0.000000   0.000000  -0.000000
    22  O    0.000000   0.000000  -0.000000   0.000000   0.000000  -0.000000
    23  O    0.000000   0.000000  -0.000000   0.000000   0.000000  -0.000000
    24  N   -0.070532   0.004863   0.000417   0.004903  -0.070647   0.315884
    25  H   -0.007944  -0.000033  -0.000000  -0.000136   0.005138  -0.022207
    26  H    0.005141  -0.000146   0.000003  -0.000021  -0.007894  -0.022191
               7          8          9         10         11         12
     1  C    0.354156  -0.037334   0.000545   0.005281   0.005799  -0.000141
     2  C   -0.033163   0.353896   0.005672   0.000537  -0.046378   0.005826
     3  C    0.003053  -0.039291  -0.039141   0.003067   0.357877  -0.048677
     4  C    0.000517   0.005661   0.354032  -0.033134  -0.046590  -0.012598
     5  C    0.005310   0.000553  -0.037436   0.354257   0.005819   0.000337
     6  C   -0.042258   0.003290   0.003256  -0.042280   0.000715  -0.000003
     7  H    0.590122  -0.005321   0.000015  -0.000161  -0.000166   0.000001
     8  H   -0.005321   0.578499  -0.000165   0.000015  -0.009591  -0.000046
     9  H    0.000015  -0.000165   0.578085  -0.005313  -0.009580   0.005039
    10  H   -0.000161   0.000015  -0.005313   0.589536  -0.000167  -0.000001
    11  C   -0.000166  -0.009591  -0.009580  -0.000167   4.737155   0.519902
    12  C    0.000001  -0.000046   0.005039  -0.000001   0.519902   5.034903
    13  C   -0.000000   0.005075  -0.000042   0.000001   0.519745  -0.050316
    14  C   -0.000000  -0.000004   0.000037  -0.000000  -0.022464   0.468195
    15  H    0.000000  -0.000000   0.002623   0.000003  -0.037284   0.358500
    16  C    0.000000   0.000034  -0.000004  -0.000000  -0.022625  -0.041266
    17  H    0.000005   0.002548  -0.000000   0.000000  -0.037165   0.005668
    18  C   -0.000000  -0.000007  -0.000007  -0.000000  -0.029641  -0.023055
    19  H    0.000000   0.000000   0.000004   0.000000   0.002740  -0.033500
    20  H    0.000000   0.000004   0.000000   0.000000   0.002743   0.000136
    21  N   -0.000000  -0.000000  -0.000000  -0.000000   0.000028   0.003857
    22  O   -0.000000   0.000000   0.000000  -0.000000  -0.000007   0.001222
    23  O    0.000000   0.000000   0.000000  -0.000000  -0.000008  -0.000027
    24  N   -0.007324  -0.000109  -0.000107  -0.007246  -0.000002   0.000000
    25  H    0.005265  -0.000007   0.000003  -0.000107  -0.000000   0.000000
    26  H   -0.000104   0.000003  -0.000008   0.005124  -0.000000   0.000000
              13         14         15         16         17         18
     1  C    0.000351   0.000002  -0.000007  -0.000003   0.000055  -0.000000
     2  C   -0.012665  -0.000164  -0.000044   0.000313   0.005166  -0.000001
     3  C   -0.048476   0.005605  -0.009255   0.005536  -0.009151   0.000450
     4  C    0.005894   0.000322   0.005244  -0.000163  -0.000037  -0.000002
     5  C   -0.000149  -0.000004   0.000042   0.000002  -0.000005  -0.000000
     6  C   -0.000003   0.000000  -0.000003  -0.000000  -0.000009   0.000000
     7  H   -0.000000  -0.000000   0.000000   0.000000   0.000005  -0.000000
     8  H    0.005075  -0.000004  -0.000000   0.000034   0.002548  -0.000007
     9  H   -0.000042   0.000037   0.002623  -0.000004  -0.000000  -0.000007
    10  H    0.000001  -0.000000   0.000003  -0.000000   0.000000  -0.000000
    11  C    0.519745  -0.022464  -0.037284  -0.022625  -0.037165  -0.029641
    12  C   -0.050316   0.468195   0.358500  -0.041266   0.005668  -0.023055
    13  C    5.034144  -0.041258   0.005685   0.468706   0.358642  -0.023078
    14  C   -0.041258   5.036851  -0.037923  -0.084852   0.000392   0.506354
    15  H    0.005685  -0.037923   0.562231   0.000391  -0.000145   0.003030
    16  C    0.468706  -0.084852   0.000391   5.036418  -0.037832   0.506402
    17  H    0.358642   0.000392  -0.000145  -0.037832   0.560744   0.003026
    18  C   -0.023078   0.506354   0.003030   0.506402   0.003026   4.865039
    19  H    0.000135   0.350679  -0.004313   0.005575   0.000013  -0.026082
    20  H   -0.033440   0.005570   0.000013   0.350713  -0.004300  -0.026119
    21  N    0.003852  -0.041900  -0.000073  -0.041903  -0.000073   0.181903
    22  O   -0.000027   0.003057  -0.000001   0.006947   0.000001  -0.098797
    23  O    0.001222   0.006948   0.000001   0.003059  -0.000001  -0.098775
    24  N    0.000000   0.000000  -0.000000   0.000000  -0.000000  -0.000000
    25  H   -0.000000   0.000000   0.000000  -0.000000  -0.000000   0.000000
    26  H    0.000000   0.000000   0.000000  -0.000000   0.000000   0.000000
              19         20         21         22         23         24
     1  C   -0.000000  -0.000000   0.000000   0.000000   0.000000  -0.070532
     2  C    0.000001  -0.000001   0.000000   0.000000   0.000000   0.004863
     3  C   -0.000112  -0.000111  -0.000001  -0.000000  -0.000000   0.000417
     4  C   -0.000001   0.000001   0.000000   0.000000   0.000000   0.004903
     5  C   -0.000000  -0.000000   0.000000   0.000000   0.000000  -0.070647
     6  C   -0.000000  -0.000000  -0.000000  -0.000000  -0.000000   0.315884
     7  H    0.000000   0.000000  -0.000000  -0.000000   0.000000  -0.007324
     8  H    0.000000   0.000004  -0.000000   0.000000   0.000000  -0.000109
     9  H    0.000004   0.000000  -0.000000   0.000000   0.000000  -0.000107
    10  H    0.000000   0.000000  -0.000000  -0.000000  -0.000000  -0.007246
    11  C    0.002740   0.002743   0.000028  -0.000007  -0.000008  -0.000002
    12  C   -0.033500   0.000136   0.003857   0.001222  -0.000027   0.000000
    13  C    0.000135  -0.033440   0.003852  -0.000027   0.001222   0.000000
    14  C    0.350679   0.005570  -0.041900   0.003057   0.006948   0.000000
    15  H   -0.004313   0.000013  -0.000073  -0.000001   0.000001  -0.000000
    16  C    0.005575   0.350713  -0.041903   0.006947   0.003059   0.000000
    17  H    0.000013  -0.004300  -0.000073   0.000001  -0.000001  -0.000000
    18  C   -0.026082  -0.026119   0.181903  -0.098797  -0.098775  -0.000000
    19  H    0.511707  -0.000128  -0.011665   0.017049   0.000143  -0.000000
    20  H   -0.000128   0.511427  -0.011655   0.000143   0.017023   0.000000
    21  N   -0.011665  -0.011655   5.921787   0.308710   0.308738  -0.000000
    22  O    0.017049   0.000143   0.308710   8.264315  -0.103826   0.000000
    23  O    0.000143   0.017023   0.308738  -0.103826   8.264127   0.000000
    24  N   -0.000000   0.000000  -0.000000   0.000000   0.000000   6.984407
    25  H    0.000000   0.000000   0.000000  -0.000000  -0.000000   0.319567
    26  H   -0.000000   0.000000  -0.000000   0.000000  -0.000000   0.319484
              25         26
     1  C   -0.007944   0.005141
     2  C   -0.000033  -0.000146
     3  C   -0.000000   0.000003
     4  C   -0.000136  -0.000021
     5  C    0.005138  -0.007894
     6  C   -0.022207  -0.022191
     7  H    0.005265  -0.000104
     8  H   -0.000007   0.000003
     9  H    0.000003  -0.000008
    10  H   -0.000107   0.005124
    11  C   -0.000000  -0.000000
    12  C    0.000000   0.000000
    13  C   -0.000000   0.000000
    14  C    0.000000   0.000000
    15  H    0.000000   0.000000
    16  C   -0.000000  -0.000000
    17  H   -0.000000   0.000000
    18  C    0.000000   0.000000
    19  H    0.000000  -0.000000
    20  H    0.000000   0.000000
    21  N    0.000000  -0.000000
    22  O   -0.000000   0.000000
    23  O   -0.000000  -0.000000
    24  N    0.319567   0.319484
    25  H    0.402124  -0.029642
    26  H   -0.029642   0.402222
 Mulliken charges:
               1
     1  C   -0.183678
     2  C   -0.180333
     3  C    0.071404
     4  C   -0.180567
     5  C   -0.183951
     6  C    0.319122
     7  H    0.130052
     8  H    0.142296
     9  H    0.142492
    10  H    0.130587
    11  C    0.109144
    12  C   -0.193955
    13  C   -0.193997
    14  C   -0.155444
    15  H    0.151287
    16  C   -0.155447
    17  H    0.152460
    18  C    0.259360
    19  H    0.187754
    20  H    0.187981
    21  N    0.378394
    22  O   -0.398786
    23  O   -0.398625
    24  N   -0.793559
    25  H    0.327979
    26  H    0.328031
 Sum of Mulliken charges =  -0.00000
 Mulliken charges with hydrogens summed into heavy atoms:
               1
     1  C   -0.053626
     2  C   -0.038038
     3  C    0.071404
     4  C   -0.038075
     5  C   -0.053365
     6  C    0.319122
    11  C    0.109144
    12  C   -0.042669
    13  C   -0.041537
    14  C    0.032311
    16  C    0.032534
    18  C    0.259360
    21  N    0.378394
    22  O   -0.398786
    23  O   -0.398625
    24  N   -0.137550
 Electronic spatial extent (au):  <R**2>=           5327.5756
 Charge=             -0.0000 electrons
 Dipole moment (field-independent basis, Debye):
    X=              7.5741    Y=              0.3463    Z=              1.0111  Tot=              7.6492
 Quadrupole moment (field-independent basis, Debye-Ang):
   XX=            -98.2801   YY=            -82.9464   ZZ=            -93.7012
   XY=              2.3019   XZ=              6.6177   YZ=             -2.0065
 Traceless Quadrupole moment (field-independent basis, Debye-Ang):
   XX=             -6.6375   YY=              8.6962   ZZ=             -2.0587
   XY=              2.3019   XZ=              6.6177   YZ=             -2.0065
 Octapole moment (field-independent basis, Debye-Ang**2):
  XXX=            301.4184  YYY=              0.5962  ZZZ=              1.0426  XYY=             13.8463
  XXY=             14.3615  XXZ=             41.4074  XZZ=            -20.7381  YZZ=             -0.1195
  YYZ=              0.5065  XYZ=             -9.7623
 Hexadecapole moment (field-independent basis, Debye-Ang**3):
 XXXX=          -5951.9630 YYYY=           -587.8197 ZZZZ=           -146.0634 XXXY=             91.0812
 XXXZ=            263.3441 YYYX=              4.3775 YYYZ=              0.2935 ZZZX=              6.1754
 ZZZY=              1.8113 XXYY=          -1065.6217 XXZZ=          -1049.8818 YYZZ=           -128.6738
 XXYZ=            -66.6164 YYXZ=              3.6471 ZZXY=             -0.7926
 N-N= 9.673008898109D+02 E-N=-3.616278270734D+03  KE= 7.161595241614D+02

 Test job not archived.
 1\1\GINC-LOCALHOST\SP\RCAM-B3LYP TD-FC\6-31G(d)\C12H10N2O2\ROOT\08-Aug
 -2018\0\\# CAM-B3LYP/6-31g(d) TD(nstates=5) IOp(9/40=4)\\b3lyp/6-31g(d
 ) opted\\0,1\C,0,3.558638,-1.138747,0.399836\C,0,2.170316,-1.133918,0.
 393595\C,0,1.43742,-0.001168,-0.004712\C,0,2.171107,1.131101,-0.402994
 \C,0,3.559403,1.135587,-0.407278\C,0,4.282122,-0.001795,-0.003524\H,0,
 4.094552,-2.027842,0.724335\H,0,1.6438,-2.019282,0.738753\H,0,1.64529,
 2.01808,-0.745042\H,0,4.096162,2.021237,-0.739602\C,0,-0.04054,-0.0003
 25,-0.003104\C,0,-0.767741,1.170235,0.294088\C,0,-0.769267,-1.170392,-
 0.298523\C,0,-2.156627,1.180103,0.295206\H,0,-0.23466,2.078825,0.55581
 3\C,0,-2.158185,-1.179384,-0.295595\H,0,-0.23738,-2.079014,-0.562484\C
 ,0,-2.839993,0.000516,0.000961\H,0,-2.717298,2.076167,0.531503\H,0,-2.
 720025,-2.075075,-0.530534\N,0,-4.30454,0.000917,0.003547\O,0,-4.87879
 3,1.060252,0.263468\O,0,-4.880312,-1.058027,-0.254447\N,0,5.671583,-0.
 020627,-0.056413\H,0,6.126117,-0.70583,0.533278\H,0,6.127057,0.882023,
 -0.015869\\Version=ES64L-G16RevA.03\State=1-A\HF=-722.7964898\RMSD=9.7
 04e-09\PG=C01 [X(C12H10N2O2)]\\@


 LENDING MONEY TO FRIENDS CAUSES THEM TO LOSE THEIR MEMORIES.

    --  PETER'S THEORY OF RECIPROCAL INHIBITION OF FISCAL RECALL
 Job cpu time:       0 days  8 hours 16 minutes 55.8 seconds.
 Elapsed time:       0 days  0 hours 13 minutes 59.5 seconds.
 File lengths (MBytes):  RWF=    452 Int=      0 D2E=      0 Chk=     17 Scr=      1
 Normal termination of Gaussian 16 at Wed Aug  8 14:00:55 2018.
