----- GAMESS execution script 'rungms' -----
This job is running on host RHEL6U1
under operating system Linux at Thu Oct 4 01:13:50 CST 2018
Available scratch disk space (Kbyte units) at beginning of the job is
Filesystem           1K-blocks      Used Available Use% Mounted on
/dev/sda1             46363632  18796720  25211712  43% /
GAMESS temporary binary files will be written to /sob/gamess/scr
GAMESS supplementary output files will be written to /sob/gamess/scr
Copying input file H2CO.inp to your run's scratch directory...
 
Assuming a single but multicore node.
 

 Distributed Data Interface kickoff program.
 Initiating 4 compute processes on 1 nodes to run the following command:
 /sob/gamess/gamess.00.x H2CO 

          ******************************************************
          *         GAMESS VERSION = 18 AUG 2016 (R1)          *
          *             FROM IOWA STATE UNIVERSITY             *
          * M.W.SCHMIDT, K.K.BALDRIDGE, J.A.BOATZ, S.T.ELBERT, *
          *   M.S.GORDON, J.H.JENSEN, S.KOSEKI, N.MATSUNAGA,   *
          *          K.A.NGUYEN, S.J.SU, T.L.WINDUS,           *
          *       TOGETHER WITH M.DUPUIS, J.A.MONTGOMERY       *
          *         J.COMPUT.CHEM.  14, 1347-1363(1993)        *
          **************** 64 BIT INTEL VERSION ****************

  SINCE 1993, STUDENTS AND POSTDOCS WORKING AT IOWA STATE UNIVERSITY
  AND ALSO IN THEIR VARIOUS JOBS AFTER LEAVING ISU HAVE MADE IMPORTANT
  CONTRIBUTIONS TO THE CODE:
     IVANA ADAMOVIC, CHRISTINE AIKENS, YURI ALEXEEV, POOJA ARORA,
     ANDREY ASADCHEV, ROB BELL, PRADIPTA BANDYOPADHYAY, JONATHAN BENTZ,
     BRETT BODE, KURT BRORSEN, CALEB CARLIN, GALINA CHABAN, WEI CHEN,
     CHEOL HO CHOI, PAUL DAY, ALBERT DEFUSCO, NUWAN DESILVA, TIM DUDLEY,
     DMITRI FEDOROV, GRAHAM FLETCHER, MARK FREITAG, KURT GLAESEMANN,
     DAN KEMP, GRANT MERRILL, NORIYUKI MINEZAWA, JONATHAN MULLIN,
     TAKESHI NAGATA, SEAN NEDD, HEATHER NETZLOFF, BOSILJKA NJEGIC, RYAN OLSON,
     MIKE PAK, SPENCER PRUITT, LUKE ROSKOP, JIM SHOEMAKER, LYUDMILA SLIPCHENKO,
     TONY SMITH, SAROM SOK LEANG, JIE SONG, TETSUYA TAKETSUGU, SIMON WEBB,
     PENG XU, SOOHAENG YOO, FEDERICO ZAHARIEV

  ADDITIONAL CODE HAS BEEN PROVIDED BY COLLABORATORS IN OTHER GROUPS:
     IOWA STATE UNIVERSITY:
          JOE IVANIC, AARON WEST, LAIMUTIS BYTAUTAS, KLAUS RUEDENBERG
     UNIVERSITY OF TOKYO: KIMIHIKO HIRAO, TAKAHITO NAKAJIMA,
          TAKAO TSUNEDA, MUNEAKI KAMIYA, SUSUMU YANAGISAWA,
          KIYOSHI YAGI, MAHITO CHIBA, SEIKEN TOKURA, NAOAKI KAWAKAMI
     UNIVERSITY OF AARHUS: FRANK JENSEN
     UNIVERSITY OF IOWA: VISVALDAS KAIRYS, HUI LI
     NATIONAL INST. OF STANDARDS AND TECHNOLOGY: WALT STEVENS, DAVID GARMER
     UNIVERSITY OF PISA: BENEDETTA MENNUCCI, JACOPO TOMASI
     UNIVERSITY OF MEMPHIS: HENRY KURTZ, PRAKASHAN KORAMBATH
     UNIVERSITY OF ALBERTA: TOBY ZENG, MARIUSZ KLOBUKOWSKI
     UNIVERSITY OF NEW ENGLAND: MARK SPACKMAN
     MIE UNIVERSITY: HIROAKI UMEDA
     NAT. INST. OF ADVANCED INDUSTRIAL SCIENCE AND TECHNOLOGY: KAZUO KITAURA
     MICHIGAN STATE UNIVERSITY:
          KAROL KOWALSKI, MARTA WLOCH, JEFFREY GOUR, JESSE LUTZ,
          WEI LI, PIOTR PIECUCH
     UNIVERSITY OF SILESIA: MONIKA MUSIAL, STANISLAW KUCHARSKI
     FACULTES UNIVERSITAIRES NOTRE-DAME DE LA PAIX:
          OLIVIER QUINET, BENOIT CHAMPAGNE
     UNIVERSITY OF CALIFORNIA - SANTA BARBARA: BERNARD KIRTMAN
     INSTITUTE FOR MOLECULAR SCIENCE:
          KAZUYA ISHIMURA, MICHIO KATOUDA, AND SHIGERU NAGASE
     UNIVERSITY OF NOTRE DAME: ANNA POMOGAEVA, DAN CHIPMAN
     KYUSHU UNIVERSITY:
          HARUYUKI NAKANO,
          FENG LONG GU, JACEK KORCHOWIEC, MARCIN MAKOWSKI, AND YURIKO AOKI,
          HIROTOSHI MORI AND EISAKU MIYOSHI
     PENNSYLVANIA STATE UNIVERSITY:
          TZVETELIN IORDANOV, CHET SWALINA, JONATHAN SKONE,
          SHARON HAMMES-SCHIFFER
     WASEDA UNIVERSITY:
          MASATO KOBAYASHI, TOMOKO AKAMA, TSUGUKI TOUMA,
          TAKESHI YOSHIKAWA, YASUHIRO IKABATA, JUNJI SEINO,
          YUYA NAKAJIMA, HIROMI NAKAI
     NANJING UNIVERSITY: SHUHUA LI
     UNIVERSITY OF NEBRASKA:
          PEIFENG SU, DEJUN SI, NANDUN THELLAMUREGE, YALI WANG, HUI LI
     UNIVERSITY OF ZURICH: ROBERTO PEVERATI, KIM BALDRIDGE
     N. COPERNICUS UNIVERSITY AND JACKSON STATE UNIVERSITY:
          MARIA BARYSZ
     UNIVERSITY OF COPENHAGEN: Jimmy Kromann, CASPER STEINMANN
     TOKYO INSTITUTE OF TECHNOLOGY: HIROYA NAKATA
     NAGOYA UNIVERSITY: YOSHIO NISHIMOTO, STEPHAN IRLE
     MOSCOW STATE UNIVERSITY: VLADIMIR MIRONOV


 PARALLEL VERSION RUNNING ON        4 PROCESSORS IN        1 NODES.

 EXECUTION OF GAMESS BEGUN Thu Oct  4 01:13:50 2018

            ECHO OF THE FIRST FEW INPUT CARDS -
 INPUT CARD> $CONTRL SCFTYP=RHF MULT=1 ICHARG=0 RUNTYP=ENERGY TDDFT=EXCITE                  
 INPUT CARD> DFTTYP=B3LYP ISPHER=0 MAXIT=60 $END                                            
 INPUT CARD> $TDDFT NSTATE=3 $END                                                           
 INPUT CARD> $BASIS GBASIS=N31 NGAUSS=6 NDFUNC=1 NPFUNC=0 DIFFSP=.F. DIFFS=.F. $END         
 INPUT CARD> $SYSTEM MWORDS=800 $END                                                        
 INPUT CARD> $SCF DIRSCF=.T. $END                                                           
 INPUT CARD> $DFT DC=.F. $END                                                               
 INPUT CARD> $DATA                                                                          
 INPUT CARD>Generated by Multiwfn                                                           
 INPUT CARD>C1                                                                              
 INPUT CARD>C    6.0     0.00002073    0.52887991    0.00000000                             
 INPUT CARD>H    1.0    -0.93783886    1.12371883    0.00000000                             
 INPUT CARD>O    8.0     0.00002073   -0.67757652    0.00000000                             
 INPUT CARD>H    1.0     0.93754857    1.12361382    0.00000000                             
 INPUT CARD> $END                                                                           
  800000000 WORDS OF MEMORY AVAILABLE

     BASIS OPTIONS
     -------------
     GBASIS=N31          IGAUSS=       6      POLAR=POPN31  
     NDFUNC=       1     NFFUNC=       0     DIFFSP=       F
     NPFUNC=       0      DIFFS=       F     BASNAM=        


     RUN TITLE
     ---------
 Generated by Multiwfn                                                           

 THE POINT GROUP OF THE MOLECULE IS C1      
 THE ORDER OF THE PRINCIPAL AXIS IS     0

 ATOM      ATOMIC                      COORDINATES (BOHR)
           CHARGE         X                   Y                   Z
 C           6.0     0.0000391740        0.9994381103        0.0000000000
 H           1.0    -1.7722584660        2.1235206759        0.0000000000
 O           8.0     0.0000391740       -1.2804339585        0.0000000000
 H           1.0     1.7717098975        2.1233222358        0.0000000000

          INTERNUCLEAR DISTANCES (ANGS.)
          ------------------------------

                1 C          2 H          3 O          4 H     

   1 C       0.0000000    1.1105917 *  1.2064564 *  1.1102553 *
   2 H       1.1105917 *  0.0000000    2.0308239 *  1.8753874 *
   3 O       1.2064564 *  2.0308239 *  0.0000000    2.0305775 *
   4 H       1.1102553 *  1.8753874 *  2.0305775 *  0.0000000  

  * ... LESS THAN  3.000


     ATOMIC BASIS SET
     ----------------
 THE CONTRACTED PRIMITIVE FUNCTIONS HAVE BEEN UNNORMALIZED
 THE CONTRACTED BASIS FUNCTIONS ARE NOW NORMALIZED TO UNITY

  SHELL TYPE  PRIMITIVE        EXPONENT          CONTRACTION COEFFICIENT(S)

 C         

      1   S       1          3047.5248800    0.001834737132
      1   S       2           457.3695180    0.014037322813
      1   S       3           103.9486850    0.068842622264
      1   S       4            29.2101553    0.232184443216
      1   S       5             9.2866630    0.467941348435
      1   S       6             3.1639270    0.362311985337

      2   L       7             7.8682723   -0.119332419775    0.068999066591
      2   L       8             1.8812885   -0.160854151696    0.316423960957
      2   L       9             0.5442493    1.143456437840    0.744308290898

      3   L      10             0.1687145    1.000000000000    1.000000000000

      4   D      11             0.8000000    1.000000000000

 H         

      5   S      12            18.7311370    0.033494604338
      5   S      13             2.8253944    0.234726953484
      5   S      14             0.6401217    0.813757326146

      6   S      15             0.1612778    1.000000000000

 O         

      7   S      16          5484.6716600    0.001831074430
      7   S      17           825.2349460    0.013950172200
      7   S      18           188.0469580    0.068445078098
      7   S      19            52.9645000    0.232714335992
      7   S      20            16.8975704    0.470192897984
      7   S      21             5.7996353    0.358520852987

      8   L      22            15.5396162   -0.110777549525    0.070874268231
      8   L      23             3.5999336   -0.148026262701    0.339752839147
      8   L      24             1.0137618    1.130767015354    0.727158577316

      9   L      25             0.2700058    1.000000000000    1.000000000000

     10   D      26             0.8000000    1.000000000000

 H         

     11   S      27            18.7311370    0.033494604338
     11   S      28             2.8253944    0.234726953484
     11   S      29             0.6401217    0.813757326146

     12   S      30             0.1612778    1.000000000000

 TOTAL NUMBER OF BASIS SET SHELLS             =   12
 NUMBER OF CARTESIAN GAUSSIAN BASIS FUNCTIONS =   34
 NUMBER OF ELECTRONS                          =   16
 CHARGE OF MOLECULE                           =    0
 SPIN MULTIPLICITY                            =    1
 NUMBER OF OCCUPIED ORBITALS (ALPHA)          =    8
 NUMBER OF OCCUPIED ORBITALS (BETA )          =    8
 TOTAL NUMBER OF ATOMS                        =    4
 THE NUCLEAR REPULSION ENERGY IS       31.2240518316

     LEBEDEV GRID-BASED DFT OPTIONS
     ------------------------------
     DFTTYP=B3LYP   
     NRAD  =      96     NLEB  =     302
     NRAD0 =      24     NLEB0 =     110
     SWOFF =    5.00E-03 (PURE SCF -> DFT)
     SWITCH=    3.00E-04 (COARSE -> TIGHT GRID)
     THRESH=    0.00E+00 GTHRE=    1.00E+00

 GRIMME'S EMPIRICAL DISPERSION CORRECTION= F

     $CONTRL OPTIONS
     ---------------
 SCFTYP=RHF          RUNTYP=ENERGY       EXETYP=RUN     
 MPLEVL=       0     CITYP =NONE         CCTYP =NONE         VBTYP =NONE    
 DFTTYP=B3LYP        TDDFT =EXCITE  
 MULT  =       1     ICHARG=       0     NZVAR =       0     COORD =UNIQUE  
 PP    =NONE         RELWFN=NONE         LOCAL =NONE         NUMGRD=       F
 ISPHER=       0     NOSYM =       0     MAXIT =      60     UNITS =ANGS    
 PLTORB=       F     MOLPLT=       F     AIMPAC=       F     FRIEND=        
 NPRINT=       7     IREST =       0     GEOM  =INPUT   
 NORMF =       0     NORMP =       0     ITOL  =      20     ICUT  =       9
 INTTYP=BEST         GRDTYP=BEST         QMTTOL= 1.0E-06

     $SYSTEM OPTIONS
     ---------------
  REPLICATED MEMORY=   800000000 WORDS (ON EVERY NODE).
 DISTRIBUTED MEMDDI=           0 MILLION WORDS IN AGGREGATE,
 MEMDDI DISTRIBUTED OVER   4 PROCESSORS IS           0 WORDS/PROCESSOR.
 TOTAL MEMORY REQUESTED ON EACH PROCESSOR=   800000000 WORDS.
 TIMLIM=      525600.00 MINUTES, OR     365.0 DAYS.
 PARALL= T  BALTYP=  DLB     KDIAG=    0  COREFL= F
 MXSEQ2=     300 MXSEQ3=     150  mem10=         0

          ----------------
          PROPERTIES INPUT
          ----------------

     MOMENTS            FIELD           POTENTIAL          DENSITY
 IEMOM =       1   IEFLD =       0   IEPOT =       0   IEDEN =       0
 WHERE =COMASS     WHERE =NUCLEI     WHERE =NUCLEI     WHERE =NUCLEI  
 OUTPUT=BOTH       OUTPUT=BOTH       OUTPUT=BOTH       OUTPUT=BOTH    
 IEMINT=       0   IEFINT=       0                     IEDINT=       0
                                                       MORB  =       0
          EXTRAPOLATION IN EFFECT
          DIIS IN EFFECT
 ORBITAL PRINTING OPTION: NPREO=     1    34     2     1

     -------------------------------
     INTEGRAL TRANSFORMATION OPTIONS
     -------------------------------
     NWORD  =            0
     CUTOFF = 1.0E-09     MPTRAN =       0
     DIRTRF =       T     AOINTS =DUP     

          ----------------------
          INTEGRAL INPUT OPTIONS
          ----------------------
 NOPK  =       1 NORDER=       0 SCHWRZ=       T

          ----------------------
          TDDFT INPUT PARAMETERS
          ----------------------
 NSTATE=       3  IROOT=       1   MULT=       1
 MAXVEC=      50 NTRIAL=       5 CNVTOL=  1.00E-07
 TDPRP =       F  TAMMD=       F    TPA=       F
 ALPHA =       F   BETA=       F  PFREQ=    0.00    0.00
   NRAD=      48   NLEB=     110

     ------------------------------------------
     THE POINT GROUP IS C1 , NAXIS= 0, ORDER= 1
     ------------------------------------------

     DIMENSIONS OF THE SYMMETRY SUBSPACES ARE
 A   =   34

 ..... DONE SETTING UP THE RUN .....
 CPU     0: STEP CPU TIME=     0.02 TOTAL CPU TIME=        0.0 (    0.0 MIN)
 TOTAL WALL CLOCK TIME=        0.0 SECONDS, CPU UTILIZATION IS  66.67%

          ********************
          1 ELECTRON INTEGRALS
          ********************
 ...... END OF ONE-ELECTRON INTEGRALS ......
 CPU     0: STEP CPU TIME=     0.00 TOTAL CPU TIME=        0.0 (    0.0 MIN)
 TOTAL WALL CLOCK TIME=        0.0 SECONDS, CPU UTILIZATION IS  50.00%

          -------------
          GUESS OPTIONS
          -------------
          GUESS =HUCKEL            NORB  =       0          NORDER=       0
          MIX   =       F          PRTMO =       F          PUNMO =       F
          TOLZ  = 1.0E-08          TOLE  = 1.0E-05
          SYMDEN=       F          PURIFY=       F

 INITIAL GUESS ORBITALS GENERATED BY HUCKEL   ROUTINE.
 HUCKEL GUESS REQUIRES     12084 WORDS.

 SYMMETRIES FOR INITIAL GUESS ORBITALS FOLLOW.   BOTH SET(S).
     8 ORBITALS ARE OCCUPIED (    2 CORE ORBITALS).
     3=A        4=A        5=A        6=A        7=A        8=A        9=A   
    10=A       11=A       12=A       13=A       14=A       15=A       16=A   
    17=A       18=A   
 ...... END OF INITIAL ORBITAL SELECTION ......
 CPU     0: STEP CPU TIME=     0.00 TOTAL CPU TIME=        0.0 (    0.0 MIN)
 TOTAL WALL CLOCK TIME=        0.0 SECONDS, CPU UTILIZATION IS  40.00%

                    ----------------------
                    AO INTEGRAL TECHNOLOGY
                    ----------------------
     S,P,L SHELL ROTATED AXIS INTEGRALS, REPROGRAMMED BY
        KAZUYA ISHIMURA (IMS) AND JOSE SIERRA (SYNSTAR).
     S,P,D,L SHELL ROTATED AXIS INTEGRALS PROGRAMMED BY
        KAZUYA ISHIMURA (INSTITUTE FOR MOLECULAR SCIENCE).
     S,P,D,F,G SHELL TO TOTAL QUARTET ANGULAR MOMENTUM SUM 5,
        ERIC PROGRAM BY GRAHAM FLETCHER (ELORET AND NASA ADVANCED
        SUPERCOMPUTING DIVISION, AMES RESEARCH CENTER).
     S,P,D,F,G,L SHELL GENERAL RYS QUADRATURE PROGRAMMED BY
        MICHEL DUPUIS (PACIFIC NORTHWEST NATIONAL LABORATORY).

          --------------------
          2 ELECTRON INTEGRALS
          --------------------

 DIRECT SCF METHOD SKIPS INTEGRAL STORAGE ON DISK.
 DIRECT TRANSFORMATION SKIPS AO INTEGRAL STORAGE ON DISK.
  ...... END OF TWO-ELECTRON INTEGRALS .....
 CPU     0: STEP CPU TIME=     0.01 TOTAL CPU TIME=        0.0 (    0.0 MIN)
 TOTAL WALL CLOCK TIME=        0.1 SECONDS, CPU UTILIZATION IS  50.00%

          --------------------------
             R-B3LYP SCF CALCULATION
          --------------------------

     NUCLEAR ENERGY =        31.2240518316
     MAXIT =   60     NPUNCH=    2
     EXTRAP=T  DAMP=F  SHIFT=F  RSTRCT=F  DIIS=T  DEM=F  SOSCF=F
         DENSITY MATRIX CONVERGENCE THRESHOLD=  2.00E-06
     COARSE -> FINE DFT GRID SWITCH THRESHOLD=  3.00E-04 (SWITCH IN $DFT)
                   HF -> DFT SWITCH THRESHOLD=  5.00E-03 (SWOFF IN $DFT)
     MEMORY REQUIRED FOR RHF ITERS=    220588 WORDS.

 DIRECT SCF CALCULATION, SCHWRZ=T   FDIFF=T,  DIRTHR=  0.00E+00 NITDIR=10
 SCHWARZ INEQUALITY OVERHEAD:       595 INTEGRALS, T=        0.00

 DFT CODE IS SWITCHING FROM THE FINE GRID NRAD= 96,  NLEB=  302
                      TO THE COARSE GRID NRAD0= 24, NLEB0=  110

     EXCHANGE FUNCTIONAL   =B88&HFX   
     CORRELATION FUNCTIONAL=LYP88&VWN5
     DFT THRESHOLD         =.345E-07
     GRID CHANGE THRESHOLD =.300E-03
 FOR AN EULER-MACLAURIN QUADRATURE USING  96 RADIAL POINTS:
 SMALLEST GAUSSIAN PRIMITIVE EXPONENT=        0.1612777588 OF TYPE -S-
 ON ATOM NUMBER   2 HAS RADIAL NORMALIZATION=  1.000000
  LARGEST GAUSSIAN PRIMITIVE EXPONENT=     5484.6716600000 OF TYPE -S-
 ON ATOM NUMBER   3 HAS RADIAL NORMALIZATION=  1.000000
 DFT IS SWITCHED OFF, PERFORMING PURE SCF UNTIL SWOFF THRESHOLD IS REACHED.

                                                                                   NONZERO     BLOCKS
 ITER EX DEM     TOTAL ENERGY        E CHANGE  DENSITY CHANGE    DIIS ERROR      INTEGRALS    SKIPPED
   1  0  0     -113.5132824678  -113.5132824678   0.312350842   0.684211323          68029          1
          * * *   INITIATING DIIS PROCEDURE   * * *
   2  1  0     -113.8357482410    -0.3224657733   0.118683973   0.143656285          68027          3
   3  2  0     -113.8542870006    -0.0185387596   0.047378595   0.077527529          68024          6
   4  3  0     -113.8643350838    -0.0100480832   0.011670427   0.017485836          68024          6
   5  4  0     -113.8647677383    -0.0004326546   0.004534173   0.004294329          68024          6
 CONVERGED TO SWOFF, SO DFT CALCULATION IS NOW SWITCHED ON.
          * * *   INITIATING DIIS PROCEDURE   * * *
   6  5  0     -114.4319291845    -0.5671614462   0.112768926   0.070361626          68029          1
   7  6  0     -114.4403060709    -0.0083768864   0.057159964   0.048878473          68024          6
   8  7  0     -114.4375287865     0.0027772844   0.041636768   0.075897175          68024          6
   9  8  0     -114.4428131130    -0.0052843264   0.006249521   0.009290086          68024          6
  10  9  0     -114.4429451885    -0.0001320755   0.000886676   0.001054265          68005         15
  11 10  0     -114.4429472209    -0.0000020324   0.000078575   0.000110209          67985         22
 DFT CODE IS SWITCHING BACK TO THE FINE GRID
          * * *   INITIATING DIIS PROCEDURE   * * *
  12 11  0     -114.4411897736     0.0017574473   0.002197036   0.001672776          68029          1
  13 12  0     -114.4411967544    -0.0000069808   0.001343176   0.000824318          68003         16
  14 13  0     -114.4411955142     0.0000012402   0.000735338   0.001427271          67981         23
  15 14  0     -114.4411974641    -0.0000019500   0.000018669   0.000043075          67963         27
  16 15  0     -114.4411974669    -0.0000000028   0.000009872   0.000014177          67754         96
  17 16  0     -114.4411974672    -0.0000000003   0.000003395   0.000003395          67505        146
  18 17  0     -114.4411974673     0.0000000000   0.000000240   0.000000295          67201        186

          -----------------
          DENSITY CONVERGED
          -----------------
     TIME TO FORM FOCK OPERATORS=       0.4 SECONDS (       0.0 SEC/ITER)
     FOCK TIME ON FIRST ITERATION=       0.0, LAST ITERATION=       0.1
     TIME TO SOLVE SCF EQUATIONS=       0.0 SECONDS (       0.0 SEC/ITER)

 FINAL R-B3LYP ENERGY IS     -114.4411974673 AFTER  18 ITERATIONS
 DFT EXCHANGE + CORRELATION ENERGY =       -11.8270415794
 TOTAL ELECTRON NUMBER             =        16.0000385210

          ------------
          EIGENVECTORS
          ------------

                      1          2          3          4          5
                  -19.1662   -10.2854    -1.0574    -0.6341    -0.4918
                     A          A          A          A          A   
    1  C  1  S    0.000031   0.992744  -0.116581  -0.163871   0.000057
    2  C  1  S    0.000559   0.048683   0.226087   0.342941  -0.000121
    3  C  1  X    0.000000   0.000000   0.000008   0.000162   0.444903
    4  C  1  Y    0.000072  -0.000964  -0.188681   0.222524   0.000065
    5  C  1  Z    0.000000   0.000000   0.000000   0.000000   0.000000
    6  C  1  S   -0.002595  -0.007732   0.092682   0.327436  -0.000159
    7  C  1  X    0.000000  -0.000001  -0.000003   0.000017   0.161688
    8  C  1  Y    0.001969  -0.001729   0.014321   0.087787  -0.000031
    9  C  1  Z    0.000000   0.000000   0.000000   0.000000   0.000000
   10  C  1 XX   -0.000021  -0.009656  -0.017170   0.017209   0.000004
   11  C  1 YY   -0.000853  -0.008618   0.026261  -0.013709  -0.000001
   12  C  1 ZZ    0.000003  -0.009926  -0.019780  -0.012531   0.000003
   13  C  1 XY    0.000000   0.000000   0.000000   0.000013   0.008261
   14  C  1 XZ    0.000000   0.000000   0.000000   0.000000   0.000000
   15  C  1 YZ    0.000000   0.000000   0.000000   0.000000   0.000000
   16  H  2  S    0.000060  -0.000386   0.027459   0.179924  -0.194663
   17  H  2  S   -0.000185   0.002145  -0.008433   0.067953  -0.135412
   18  O  3  S    0.992820  -0.000220  -0.196290   0.087165  -0.000052
   19  O  3  S    0.025955   0.000146   0.435591  -0.198922   0.000116
   20  O  3  X    0.000000   0.000000   0.000001   0.000048   0.286676
   21  O  3  Y    0.001227  -0.000042   0.166057   0.101284  -0.000206
   22  O  3  Z    0.000000   0.000000   0.000000   0.000000   0.000000
   23  O  3  S    0.012216  -0.001414   0.370166  -0.250636   0.000194
   24  O  3  X    0.000000   0.000000   0.000003   0.000026   0.150801
   25  O  3  Y    0.001184  -0.001627   0.045951   0.055308  -0.000104
   26  O  3  Z    0.000000   0.000000   0.000000   0.000000   0.000000
   27  O  3 XX   -0.007918   0.000080  -0.008683   0.001006   0.000001
   28  O  3 YY   -0.007416  -0.000424   0.011558   0.013603  -0.000014
   29  O  3 ZZ   -0.007959   0.000209  -0.003133  -0.001074   0.000001
   30  O  3 XY    0.000000   0.000000   0.000000   0.000007   0.022805
   31  O  3 XZ    0.000000   0.000000   0.000000   0.000000   0.000000
   32  O  3 YZ    0.000000   0.000000   0.000000   0.000000   0.000000
   33  H  4  S    0.000060  -0.000387   0.027479   0.180116   0.194617
   34  H  4  S   -0.000185   0.002146  -0.008432   0.068042   0.135386

                      6          7          8          9         10
                   -0.4461    -0.3958    -0.2650    -0.0387     0.1045
                     A          A          A          A          A   
    1  C  1  S   -0.029705   0.000000   0.000002   0.000000  -0.132139
    2  C  1  S    0.087065   0.000000  -0.000013   0.000000   0.222253
    3  C  1  X    0.000129   0.000000  -0.149769   0.000000  -0.000334
    4  C  1  Y   -0.361509   0.000000   0.000003   0.000000   0.247946
    5  C  1  Z    0.000000   0.359810   0.000000   0.496408   0.000000
    6  C  1  S    0.025797   0.000000   0.000058   0.000000   1.850115
    7  C  1  X    0.000075   0.000000   0.032391   0.000000  -0.000418
    8  C  1  Y   -0.082900   0.000000   0.000028   0.000000   0.620907
    9  C  1  Z    0.000000   0.208808   0.000000   0.583970   0.000000
   10  C  1 XX   -0.019153   0.000000   0.000005   0.000000  -0.014373
   11  C  1 YY    0.005584   0.000000   0.000001   0.000000  -0.010780
   12  C  1 ZZ   -0.006550   0.000000   0.000001   0.000000   0.000336
   13  C  1 XY   -0.000005   0.000000  -0.053498   0.000000  -0.000001
   14  C  1 XZ    0.000000   0.000004   0.000000   0.000008   0.000000
   15  C  1 YZ    0.000000  -0.027785   0.000000   0.031957   0.000000
   16  H  2  S   -0.080672   0.000000   0.183047   0.000000  -0.094456
   17  H  2  S   -0.080521   0.000000   0.284710   0.000000  -1.351557
   18  O  3  S    0.086702   0.000000   0.000001   0.000000   0.006109
   19  O  3  S   -0.171198   0.000000  -0.000008   0.000000  -0.019524
   20  O  3  X    0.000122   0.000000   0.584554   0.000000   0.000150
   21  O  3  Y    0.522919   0.000000  -0.000013   0.000000  -0.082343
   22  O  3  Z    0.000000   0.509160   0.000000  -0.441813   0.000000
   23  O  3  S   -0.411541   0.000000   0.000015   0.000000   0.002374
   24  O  3  X    0.000064   0.000000   0.418058   0.000000   0.000203
   25  O  3  Y    0.258904   0.000000  -0.000006   0.000000  -0.086143
   26  O  3  Z    0.000000   0.313751   0.000000  -0.464822   0.000000
   27  O  3 XX    0.003703   0.000000  -0.000001   0.000000  -0.007523
   28  O  3 YY    0.038045   0.000000  -0.000004   0.000000   0.002422
   29  O  3 ZZ    0.001489   0.000000  -0.000002   0.000000   0.004995
   30  O  3 XY    0.000008   0.000000   0.018372   0.000000  -0.000008
   31  O  3 XZ    0.000000   0.000000   0.000000   0.000000   0.000000
   32  O  3 YZ    0.000000   0.033376   0.000000  -0.000761   0.000000
   33  H  4  S   -0.080574   0.000000  -0.182995   0.000000  -0.094367
   34  H  4  S   -0.080462   0.000000  -0.284624   0.000000  -1.350912

                     11         12         13         14         15
                    0.1853     0.2220     0.5098     0.6270     0.6300
                     A          A          A          A          A   
    1  C  1  S    0.000067   0.048319   0.000000  -0.080189   0.001085
    2  C  1  S   -0.000126  -0.007512   0.000000  -0.434471   0.005826
    3  C  1  X   -0.542050   0.000092   0.000000  -0.010107  -0.752177
    4  C  1  Y   -0.000087   0.124558   0.000000  -0.632798   0.008780
    5  C  1  Z    0.000000   0.000000  -1.027293   0.000000   0.000000
    6  C  1  S   -0.001797  -1.593926   0.000000   1.515243  -0.019930
    7  C  1  X   -1.337565   0.000216   0.000000   0.031404   2.274941
    8  C  1  Y   -0.000227   1.993951   0.000000   1.077703  -0.014496
    9  C  1  Z    0.000000   0.000000   1.167562   0.000000   0.000000
   10  C  1 XX   -0.000010  -0.021686   0.000000  -0.159956   0.002196
   11  C  1 YY    0.000008   0.016673   0.000000  -0.127330   0.001764
   12  C  1 ZZ    0.000007  -0.010490   0.000000   0.095103  -0.001301
   13  C  1 XY   -0.004314   0.000005   0.000000  -0.000776  -0.057424
   14  C  1 XZ    0.000000   0.000000  -0.000004   0.000000   0.000000
   15  C  1 YZ    0.000000   0.000000   0.018936   0.000000   0.000000
   16  H  2  S   -0.018486   0.012842   0.000000  -0.549165   0.321276
   17  H  2  S   -1.559123  -0.212600   0.000000  -0.241387   0.936664
   18  O  3  S   -0.000016  -0.112836   0.000000   0.028219  -0.000391
   19  O  3  S    0.000002   0.086973   0.000000  -0.297466   0.004118
   20  O  3  X    0.179630  -0.000020   0.000000  -0.005038  -0.370032
   21  O  3  Y    0.000063   0.190193   0.000000  -0.174249   0.002405
   22  O  3  Z    0.000000   0.000000  -0.038841   0.000000   0.000000
   23  O  3  S    0.000298   2.201324   0.000000   0.405685  -0.005585
   24  O  3  X    0.379154  -0.000053   0.000000  -0.002931  -0.205290
   25  O  3  Y    0.000177   0.898744   0.000000  -0.208792   0.002873
   26  O  3  Z    0.000000   0.000000  -0.122106   0.000000   0.000000
   27  O  3 XX   -0.000009  -0.078540   0.000000  -0.099930   0.001381
   28  O  3 YY   -0.000003  -0.004794   0.000000   0.009861  -0.000150
   29  O  3 ZZ   -0.000016  -0.076042   0.000000  -0.060344   0.000847
   30  O  3 XY   -0.010305   0.000003   0.000000  -0.000400  -0.030263
   31  O  3 XZ    0.000000   0.000000   0.000000   0.000000   0.000000
   32  O  3 YZ    0.000000   0.000000  -0.073202   0.000000   0.000000
   33  H  4  S    0.018417   0.012862   0.000000  -0.557680  -0.306305
   34  H  4  S    1.561236  -0.213201   0.000000  -0.267703  -0.930333

                     16         17         18         19         20
                    0.6975     0.8172     0.8404     0.8939     0.9634
                     A          A          A          A          A   
    1  C  1  S    0.027464  -0.000143   0.062529   0.003749   0.000000
    2  C  1  S   -0.895426   0.002667  -0.322855  -1.466851   0.000000
    3  C  1  X   -0.000007  -0.721370  -0.001639  -0.000997   0.000000
    4  C  1  Y    0.785251   0.001031  -0.424401  -0.333236   0.000000
    5  C  1  Z    0.000000   0.000000   0.000000   0.000000   0.064411
    6  C  1  S    0.971020  -0.006857   1.519004   2.901189   0.000000
    7  C  1  X    0.000152   1.159108   0.002643   0.001661   0.000000
    8  C  1  Y   -0.393165  -0.001276   0.326434   0.569652   0.000000
    9  C  1  Z    0.000000   0.000000   0.000000   0.000000  -0.482619
   10  C  1 XX   -0.193518   0.000043  -0.022741   0.032261   0.000000
   11  C  1 YY    0.123668  -0.000268   0.211496  -0.180029   0.000000
   12  C  1 ZZ   -0.033506   0.000352  -0.124676  -0.086302   0.000000
   13  C  1 XY    0.000052   0.190146   0.000439   0.000293   0.000000
   14  C  1 XZ    0.000000   0.000000   0.000000   0.000000  -0.000001
   15  C  1 YZ    0.000000   0.000000   0.000000   0.000000   0.029048
   16  H  2  S   -0.332381  -0.743258   0.314868   0.454685   0.000000
   17  H  2  S    0.062537   1.372588  -0.695307  -1.258783   0.000000
   18  O  3  S   -0.041581  -0.000002   0.003182   0.004399   0.000000
   19  O  3  S    0.036834   0.000579  -0.457983   0.336871   0.000000
   20  O  3  X    0.000077   0.190712   0.000380   0.000244   0.000000
   21  O  3  Y    0.402858  -0.001176   0.650151  -0.250369   0.000000
   22  O  3  Z    0.000000   0.000000   0.000000   0.000000  -0.948726
   23  O  3  S   -0.024916   0.000060   0.418284  -0.810712   0.000000
   24  O  3  X   -0.000046  -0.165496  -0.000328  -0.000210   0.000000
   25  O  3  Y    0.189385   0.001990  -1.173333   0.365941   0.000000
   26  O  3  Z    0.000000   0.000000   0.000000   0.000000   1.254996
   27  O  3 XX    0.023448   0.000198  -0.160631   0.120535   0.000000
   28  O  3 YY   -0.217862   0.000477  -0.254892   0.109703   0.000000
   29  O  3 ZZ    0.049589   0.000122  -0.153571   0.156557   0.000000
   30  O  3 XY   -0.000010  -0.115919  -0.000271  -0.000185   0.000000
   31  O  3 XZ    0.000000   0.000000   0.000000   0.000000   0.000001
   32  O  3 YZ    0.000000   0.000000   0.000000   0.000000  -0.031618
   33  H  4  S   -0.331914   0.740903   0.318049   0.456607   0.000000
   34  H  4  S    0.061717  -1.366531  -0.701460  -1.262727   0.000000

                     21         22         23         24         25
                    1.0625     1.3806     1.5092     1.5136     1.6852
                     A          A          A          A          A   
    1  C  1  S    0.000003  -0.028952   0.000000   0.000000  -0.025116
    2  C  1  S   -0.000056  -0.039481   0.000000   0.000000  -0.203065
    3  C  1  X   -0.270183  -0.000071   0.000000   0.000000  -0.000015
    4  C  1  Y    0.000002   0.167261   0.000000   0.000000  -0.022750
    5  C  1  Z    0.000000   0.000000   0.000481   0.213521   0.000000
    6  C  1  S    0.000660  -2.725299   0.000000   0.000000   1.023388
    7  C  1  X    1.640637   0.000195   0.000000   0.000000  -0.000204
    8  C  1  Y    0.000088   1.736877   0.000000   0.000000   0.031609
    9  C  1  Z    0.000000   0.000000  -0.000322  -0.138494   0.000000
   10  C  1 XX    0.000017   0.231420   0.000000   0.000000   0.395350
   11  C  1 YY    0.000024  -0.191259   0.000000   0.000000   0.046387
   12  C  1 ZZ   -0.000007  -0.036826   0.000000   0.000000  -0.476997
   13  C  1 XY   -0.174153  -0.000025   0.000000   0.000000  -0.000243
   14  C  1 XZ    0.000000   0.000000   0.807188  -0.001848   0.000000
   15  C  1 YZ    0.000000   0.000000   0.001553   0.670889   0.000000
   16  H  2  S    0.165582   0.088996   0.000000   0.000000  -0.285421
   17  H  2  S    0.665972  -0.048777   0.000000   0.000000  -0.167664
   18  O  3  S    0.000003  -0.096255   0.000000   0.000000   0.008189
   19  O  3  S    0.000092  -1.717087   0.000000   0.000000   0.210999
   20  O  3  X    0.837930   0.000033   0.000000   0.000000  -0.000110
   21  O  3  Y    0.000043  -0.306159   0.000000   0.000000   0.018856
   22  O  3  Z    0.000000   0.000000   0.000309   0.133880   0.000000
   23  O  3  S   -0.000252   5.196719   0.000000   0.000000  -0.637471
   24  O  3  X   -1.516139  -0.000093   0.000000   0.000000   0.000131
   25  O  3  Y   -0.000128   1.813413   0.000000   0.000000  -0.238659
   26  O  3  Z    0.000000   0.000000   0.000289   0.122812   0.000000
   27  O  3 XX    0.000020  -0.315777   0.000000   0.000000   0.716397
   28  O  3 YY    0.000014  -0.590146   0.000000   0.000000   0.080542
   29  O  3 ZZ    0.000031  -0.402074   0.000000   0.000000  -0.687181
   30  O  3 XY    0.112289   0.000018   0.000000   0.000000   0.000224
   31  O  3 XZ    0.000000   0.000000   0.497926  -0.001163   0.000000
   32  O  3 YZ    0.000000   0.000000  -0.001242  -0.542362   0.000000
   33  H  4  S   -0.165474   0.089002   0.000000   0.000000  -0.285072
   34  H  4  S   -0.666553  -0.049000   0.000000   0.000000  -0.167784

                     26         27         28         29         30
                    1.8535     1.9349     2.1297     2.2826     2.5446
                     A          A          A          A          A   
    1  C  1  S   -0.000013   0.000000   0.059439  -0.060061   0.000000
    2  C  1  S    0.000127   0.000000   0.104378   0.030559   0.000000
    3  C  1  X    0.281227   0.000000  -0.000253  -0.000110   0.000000
    4  C  1  Y    0.000125   0.000000  -0.010526  -0.157126   0.000000
    5  C  1  Z    0.000000   0.000011   0.000000   0.000000  -0.271435
    6  C  1  S    0.000169   0.000000  -0.855450   0.092390   0.000000
    7  C  1  X    0.830619   0.000000  -0.000465  -0.000119   0.000000
    8  C  1  Y    0.000155   0.000000   0.006086  -0.414030   0.000000
    9  C  1  Z    0.000000   0.000001   0.000000   0.000000  -0.285610
   10  C  1 XX   -0.000092   0.000000  -0.546215  -0.882646   0.000000
   11  C  1 YY   -0.000004   0.000000  -0.249662   0.996629   0.000000
   12  C  1 ZZ    0.000110   0.000000   0.987740  -0.344965   0.000000
   13  C  1 XY    0.538628   0.000000  -0.000055   0.000084   0.000000
   14  C  1 XZ    0.000000  -0.603595   0.000000   0.000000  -0.000012
   15  C  1 YZ    0.000000   0.000003   0.000000   0.000000   0.976911
   16  H  2  S    0.579916   0.000000   0.401466   0.244586   0.000000
   17  H  2  S    0.129946   0.000000   0.051783  -0.021965   0.000000
   18  O  3  S   -0.000003   0.000000  -0.001026  -0.000545   0.000000
   19  O  3  S   -0.000024   0.000000  -0.011084  -0.560145   0.000000
   20  O  3  X    0.277068   0.000000  -0.000098  -0.000014   0.000000
   21  O  3  Y    0.000008   0.000000   0.148880  -0.653292   0.000000
   22  O  3  Z    0.000000   0.000003   0.000000   0.000000   0.002259
   23  O  3  S    0.000128   0.000000   0.335276   0.213615   0.000000
   24  O  3  X   -0.480368   0.000000   0.000292   0.000097   0.000000
   25  O  3  Y    0.000025   0.000000   0.066204   0.325621   0.000000
   26  O  3  Z    0.000000  -0.000005   0.000000   0.000000   0.486404
   27  O  3 XX    0.000477   0.000000   0.584730  -0.063696   0.000000
   28  O  3 YY   -0.000013   0.000000  -0.084589  -0.017362   0.000000
   29  O  3 ZZ   -0.000486   0.000000  -0.420240  -0.317211   0.000000
   30  O  3 XY   -0.693746   0.000000   0.000437   0.000203   0.000000
   31  O  3 XZ    0.000000   0.876329   0.000000   0.000000   0.000004
   32  O  3 YZ    0.000000  -0.000019   0.000000   0.000000   1.042106
   33  H  4  S   -0.580160   0.000000   0.402005   0.244647   0.000000
   34  H  4  S   -0.130175   0.000000   0.052109  -0.021814   0.000000

                     31         32         33         34
                    2.6605     2.9143     3.6865     4.0591
                     A          A          A          A   
    1  C  1  S   -0.000033  -0.055772   0.008020  -0.474907
    2  C  1  S    0.000076  -1.318745  -0.220633   2.919292
    3  C  1  X   -0.128375  -0.000020  -0.000023  -0.000069
    4  C  1  Y    0.000206   1.357769  -0.060593   0.295092
    5  C  1  Z    0.000000   0.000000   0.000000   0.000000
    6  C  1  S    0.000074  -1.385153  -1.860753   1.112744
    7  C  1  X   -0.303121   0.000044   0.000042   0.000091
    8  C  1  Y    0.000142   0.781505   1.030165   0.440752
    9  C  1  Z    0.000000   0.000000   0.000000   0.000000
   10  C  1 XX    0.000263   0.265404   0.074938  -1.781262
   11  C  1 YY   -0.000226  -0.752905   0.189632  -2.152590
   12  C  1 ZZ   -0.000236   0.353295   0.166245  -1.720447
   13  C  1 XY    1.126194  -0.000104  -0.000033  -0.000130
   14  C  1 XZ    0.000000   0.000000   0.000000   0.000000
   15  C  1 YZ    0.000000   0.000000   0.000000   0.000000
   16  H  2  S    0.362076   0.062865   0.079449   0.185753
   17  H  2  S   -0.303426  -0.023725  -0.001522  -0.458226
   18  O  3  S   -0.000010  -0.046761  -0.513836  -0.035660
   19  O  3  S    0.000068  -0.682535  -0.091258   0.048763
   20  O  3  X    0.046971  -0.000004   0.000002  -0.000009
   21  O  3  Y    0.000102   0.302135  -0.256522   0.258806
   22  O  3  Z    0.000000   0.000000   0.000000   0.000000
   23  O  3  S    0.000131   2.882730   5.249450   0.652981
   24  O  3  X    0.416227  -0.000035  -0.000023  -0.000025
   25  O  3  Y    0.000060   1.781984   1.061951   0.461707
   26  O  3  Z    0.000000   0.000000   0.000000   0.000000
   27  O  3 XX   -0.000138  -0.680656  -1.759937  -0.145793
   28  O  3 YY    0.000120   1.521076  -1.533912   0.248900
   29  O  3 ZZ    0.000010  -0.700066  -1.771496  -0.188483
   30  O  3 XY    0.957641  -0.000066  -0.000019  -0.000045
   31  O  3 XZ    0.000000   0.000000   0.000000   0.000000
   32  O  3 YZ    0.000000   0.000000   0.000000   0.000000
   33  H  4  S   -0.362637   0.062981   0.079470   0.186026
   34  H  4  S    0.303503  -0.023830  -0.001568  -0.458580
 ...... END OF RHF CALCULATION ......
 CPU     0: STEP CPU TIME=     0.49 TOTAL CPU TIME=        0.5 (    0.0 MIN)
 TOTAL WALL CLOCK TIME=        1.3 SECONDS, CPU UTILIZATION IS  40.31%

     ---------------------------------------------------------------------
     PROPERTIES FOR THE B3LYP    DFT FUNCTIONAL (RHF  TYPE) DENSITY MATRIX
     ---------------------------------------------------------------------

          -----------------
          ENERGY COMPONENTS
          -----------------

         WAVEFUNCTION NORMALIZATION =       1.0000000000

                ONE ELECTRON ENERGY =    -217.3606726288
                TWO ELECTRON ENERGY =      71.6954233299
           NUCLEAR REPULSION ENERGY =      31.2240518316
                                      ------------------
                       TOTAL ENERGY =    -114.4411974673

 ELECTRON-ELECTRON POTENTIAL ENERGY =      71.6954233299
  NUCLEUS-ELECTRON POTENTIAL ENERGY =    -330.8419550806
   NUCLEUS-NUCLEUS POTENTIAL ENERGY =      31.2240518316
                                      ------------------
             TOTAL POTENTIAL ENERGY =    -227.9224799191
               TOTAL KINETIC ENERGY =     113.4812824518
                 VIRIAL RATIO (V/T) =       2.0084587960

          ---------------------------------------
          MULLIKEN AND LOWDIN POPULATION ANALYSES
          ---------------------------------------

     ATOMIC MULLIKEN POPULATION IN EACH MOLECULAR ORBITAL

                      1          2          3          4          5

                  2.000000   2.000000   2.000000   2.000000   2.000000

    1            -0.000774   2.000040   0.537330   1.178671   0.977918
    2            -0.000005   0.000391   0.000844   0.265495   0.295954
    3             2.000783  -0.000823   1.460975   0.289808   0.430408
    4            -0.000005   0.000392   0.000851   0.266026   0.295721

                      6          7          8

                  2.000000   2.000000   2.000000

    1             0.396171   0.740417   0.089400
    2             0.063253   0.000000   0.253300
    3             1.477465   1.259583   1.404275
    4             0.063111   0.000000   0.253026

               ----- POPULATIONS IN EACH AO -----
                             MULLIKEN      LOWDIN
              1  C  1  S      1.99183     1.97471
              2  C  1  S      0.73238     0.37800
              3  C  1  X      0.76032     0.65393
              4  C  1  Y      0.74867     0.66340
              5  C  1  Z      0.44870     0.40776
              6  C  1  S      0.53313     0.34616
              7  C  1  X      0.26346     0.43473
              8  C  1  Y      0.10732     0.27837
              9  C  1  Z      0.27994     0.32659
             10  C  1 XX      0.00541     0.16476
             11  C  1 YY      0.01790     0.20749
             12  C  1 ZZ      0.04354     0.10494
             13  C  1 XY      0.00000     0.09750
             14  C  1 XZ      0.01178     0.00000
             15  C  1 YZ     -0.02521     0.02105
             16  H  2  S      0.53403     0.49185
             17  H  2  S      0.34520     0.38317
             18  O  3  S      1.99274     1.97668
             19  O  3  S      0.92230     0.72114
             20  O  3  X      1.15923     1.11505
             21  O  3  Y      0.94532     0.87329
             22  O  3  Z      0.75077     0.69837
             23  O  3  S      0.98633     0.48267
             24  O  3  X      0.66816     0.70745
             25  O  3  Y      0.39632     0.52412
             26  O  3  Z      0.49723     0.53129
             27  O  3 XX      0.00240     0.16623
             28  O  3 YY      0.00779     0.19116
             29  O  3 ZZ      0.00730     0.17237
             30  O  3 XY      0.00000     0.01594
             31  O  3 XZ      0.01158     0.00000
             32  O  3 YZ     -0.02499     0.01494
             33  H  4  S      0.53413     0.49190
             34  H  4  S      0.34499     0.38301

          ----- MULLIKEN ATOMIC OVERLAP POPULATIONS -----
          (OFF-DIAGONAL ELEMENTS NEED TO BE MULTIPLIED BY 2)

             1           2           3           4

    1    4.6993114
    2    0.3309966   0.6985401
    3    0.5578393  -0.0550725   7.8747796
    4    0.3310246  -0.0952309  -0.0550733   0.6984015

          TOTAL MULLIKEN AND LOWDIN ATOMIC POPULATIONS
       ATOM         MULL.POP.    CHARGE          LOW.POP.     CHARGE
    1 C             5.919172    0.080828         6.059372   -0.059372
    2 H             0.879233    0.120767         0.875013    0.124987
    3 O             8.322473   -0.322473         8.190701   -0.190701
    4 H             0.879122    0.120878         0.874914    0.125086

          MULLIKEN SPHERICAL HARMONIC POPULATIONS
       ATOM           S       P       D      F      G      H      I    TOTAL
    1 C             3.23    2.61    0.08   0.00   0.00   0.00   0.00    5.92
    2 H             0.88    0.00    0.00   0.00   0.00   0.00   0.00    0.88
    3 O             3.88    4.42    0.03   0.00   0.00   0.00   0.00    8.32
    4 H             0.88    0.00    0.00   0.00   0.00   0.00   0.00    0.88

          -------------------------------
          BOND ORDER AND VALENCE ANALYSIS     BOND ORDER THRESHOLD=0.050
          -------------------------------

                   BOND                       BOND                       BOND
  ATOM PAIR DIST  ORDER      ATOM PAIR DIST  ORDER      ATOM PAIR DIST  ORDER
    1   2  1.111  0.876        1   3  1.206  2.018        1   4  1.110  0.876

                       TOTAL       BONDED        FREE
      ATOM            VALENCE     VALENCE     VALENCE
    1 C                 3.770       3.770       0.000
    2 H                 0.921       0.921       0.000
    3 O                 2.089       2.089       0.000
    4 H                 0.921       0.921       0.000

          ---------------------
          ELECTROSTATIC MOMENTS
          ---------------------

 POINT   1           X           Y           Z (BOHR)    CHARGE
                 0.000018   -0.140187    0.000000        0.00 (A.U.)
         DX          DY          DZ         /D/  (DEBYE)
     0.000443    2.183719    0.000000    2.183719
 ...... END OF PROPERTY EVALUATION ......
 CPU     0: STEP CPU TIME=     0.03 TOTAL CPU TIME=        0.5 (    0.0 MIN)
 TOTAL WALL CLOCK TIME=        1.3 SECONDS, CPU UTILIZATION IS  42.31%

 -----------------------------------------------------------------------
                    TDDFT CALCULATION FOR SCFTYP=RHF 
                          CODED BY MAHITO CHIBA
 NATIONAL INSTITUTE OF ADVANCED INDUSTRIAL SCIENCE AND TECHNOLOGY, JAPAN
 -----------------------------------------------------------------------
  
 -TDDFT RUNTIME PARAMETERS-
    TRIPLET  = F
    NONEQ    = T
    NSTATE   =                     3
    IROOT    =                     1
    NTRIAL   =                     5
    MAXVEC   =                    50
    ILENG    =                   200
    MAXGRD   =                 19965
    NRAD     =                    48
    NLEB     =                   110
 GAS PHASE COMPUTATION
  
 FOR AN EULER-MACLAURIN QUADRATURE USING  48 RADIAL POINTS:
 SMALLEST GAUSSIAN PRIMITIVE EXPONENT=        0.1612777588 OF TYPE -S-
 ON ATOM NUMBER   2 HAS RADIAL NORMALIZATION=  1.000000
  LARGEST GAUSSIAN PRIMITIVE EXPONENT=     5484.6716600000 OF TYPE -S-
 ON ATOM NUMBER   3 HAS RADIAL NORMALIZATION=  1.000000
  
 MEM1  =      256419 MEM2  =        4142 MEMGRID=      222012
 MEMPCM=           0 MEMEFP=           0
 TOTAL MEMORY REQUIRED FOR TD-DFT ITERATIONS IS      482574 WORDS.

 INITIAL VECTORS / MXVEC                      5 /                   150
 ITERATION #                      1
    CURRENT VECTORS    1 TO   5 (   5 VECTORS)
    STATE NUMBER   1  ENERGY =    4.125170 EV
    STATE NUMBER   2  ENERGY =    9.209760 EV
    STATE NUMBER   3  ENERGY =    9.388245 EV
    MAX ERROR =  3.104E-02 / 1.000E-07
 ITERATION #                      2
    CURRENT VECTORS    6 TO  11 (   6 VECTORS)
    STATE NUMBER   1  ENERGY =    4.088031 EV
    STATE NUMBER   2  ENERGY =    9.093733 EV
    STATE NUMBER   3  ENERGY =    9.186982 EV
    MAX ERROR =  7.014E-04 / 1.000E-07
 ITERATION #                      3
    CURRENT VECTORS   12 TO  17 (   6 VECTORS)
    STATE NUMBER   1  ENERGY =    4.087651 EV
    STATE NUMBER   2  ENERGY =    9.089356 EV
    STATE NUMBER   3  ENERGY =    9.177656 EV
    MAX ERROR =  4.876E-05 / 1.000E-07
 ITERATION #                      4
    CURRENT VECTORS   18 TO  23 (   6 VECTORS)
    STATE NUMBER   1  ENERGY =    4.087649 EV
    STATE NUMBER   2  ENERGY =    9.089093 EV
    STATE NUMBER   3  ENERGY =    9.177139 EV
    MAX ERROR =  2.594E-06 / 1.000E-07
 ITERATION #                      5
    CURRENT VECTORS   24 TO  27 (   4 VECTORS)
    STATE NUMBER   1  ENERGY =    4.087649 EV
    STATE NUMBER   2  ENERGY =    9.089070 EV
    STATE NUMBER   3  ENERGY =    9.177109 EV
    MAX ERROR =  5.800E-07 / 1.000E-07
 ITERATION #                      6
    CURRENT VECTORS   28 TO  31 (   4 VECTORS)
    STATE NUMBER   1  ENERGY =    4.087649 EV
    STATE NUMBER   2  ENERGY =    9.089068 EV
    STATE NUMBER   3  ENERGY =    9.177106 EV
    MAX ERROR =  4.699E-08 / 1.000E-07
  
   ---------------------------------  
     R-TDDFT CALCULATION CONVERGED
   ---------------------------------  
 NUMBER OF USED VECTORS / MAX =  31 / 150
 NUMBER OF ITERATIONS   / MAX =   6 / 100
 NUMBER OF SINGLE EXCITATIONS =   208
 NUMBER OF ATOMIC ORBITALS    =  34
 NUMBER OF ELECTRONS          =          15.9982500

          -------------------
          SINGLET EXCITATIONS
          -------------------

 STATE #   1  ENERGY =    4.087649 EV
 OSCILLATOR STRENGTH =    0.000000
 LAMBDA DIAGNOSTIC   =    0.497 (RYDBERG/CHARGE TRANSFER CHARACTER)
 SYMMETRY OF STATE   =    A   
                 EXCITATION  DE-EXCITATION
     OCC     VIR  AMPLITUDE      AMPLITUDE
      I       A     X(I->A)        Y(A->I)
     ---     ---   --------       --------
      5       9    0.033372      -0.001834
      8       9    0.999853      -0.035224

 STATE #   2  ENERGY =    9.089068 EV
 OSCILLATOR STRENGTH =    0.160018
 LAMBDA DIAGNOSTIC   =    0.482 (RYDBERG/CHARGE TRANSFER CHARACTER)
 SYMMETRY OF STATE   =    A   
                 EXCITATION  DE-EXCITATION
     OCC     VIR  AMPLITUDE      AMPLITUDE
      I       A     X(I->A)        Y(A->I)
     ---     ---   --------       --------
      5      10   -0.051801      -0.020551
      8      10   -0.998020       0.024955

 STATE #   3  ENERGY =    9.177106 EV
 OSCILLATOR STRENGTH =    0.001574
 LAMBDA DIAGNOSTIC   =    0.576 (RYDBERG/CHARGE TRANSFER CHARACTER)
 SYMMETRY OF STATE   =    A   
                 EXCITATION  DE-EXCITATION
     OCC     VIR  AMPLITUDE      AMPLITUDE
      I       A     X(I->A)        Y(A->I)
     ---     ---   --------       --------
      3       9   -0.050254      -0.015146
      6       9   -0.998549       0.030923

                          SUMMARY OF TDDFT RESULTS

   STATE             ENERGY     EXCITATION  TRANSITION DIPOLE, A.U.  OSCILLATOR
   0 ->             HARTREE          EV         X       Y       Z     STRENGTH
   0  A         -114.4411974673    0.000
   1  A         -114.2909791424    4.088     0.0000  0.0000  0.0001    0.0000
   2  A         -114.1071803333    9.089    -0.8477  0.0001  0.0000    0.1600
   3  A         -114.1039450129    9.177     0.0000  0.0000  0.0837    0.0016
  
 TRANSITION        EXCITATION            TRANSITION DIPOLE, A.U.     OSCILLATOR
                       EV              X       Y       Z       DIP    STRENGTH

  1  ->  2           5.001          0.0000  0.0000 -0.0773   0.0773    0.0007
  1  ->  3           5.089         -0.0408  0.0005  0.0000   0.0408    0.0002
  2  ->  3           0.088          0.0000  0.0000 -0.0001   0.0001    0.0000
 
 SELECTING EXCITED STATE IROOT=   1 AT E=     -114.2909791424
 AS THE STATE OF INTEREST.

 ..... DONE WITH TD-DFT EXCITATION ENERGIES .....
 CPU     0: STEP CPU TIME=     0.99 TOTAL CPU TIME=        1.5 (    0.0 MIN)
 TOTAL WALL CLOCK TIME=        2.5 SECONDS, CPU UTILIZATION IS  60.87%
                580000  WORDS OF DYNAMIC MEMORY USED
 EXECUTION OF GAMESS TERMINATED NORMALLY Thu Oct  4 01:13:52 2018
 DDI: 263640 bytes (0.3 MB / 0 MWords) used by master data server.

 ----------------------------------------
 CPU timing information for all processes
 ========================================
 0: 1.354 + 0.197 = 1.552
 1: 1.354 + 0.101 = 1.456
 2: 1.374 + 0.72 = 1.447
 3: 1.361 + 0.84 = 1.446
 ----------------------------------------
 ddikick.x: exited gracefully.
----- accounting info -----
Files used on the master node RHEL6U1 were:
-rw-r--r-- 1 root root   19929 Oct  4 01:13 /sob/gamess/scr/H2CO.dat
-rwxr--r-- 1 root root     519 Oct  4 01:13 /sob/gamess/scr/H2CO.F05*
-rw-r--r-- 1 root root 1701440 Oct  4 01:13 /sob/gamess/scr/H2CO.F10
-rw-r--r-- 1 root root  798640 Oct  4 01:13 /sob/gamess/scr/H2CO.F22
-rw-r--r-- 1 root root  798640 Oct  4 01:13 /sob/gamess/scr/H2CO.F22.001
-rw-r--r-- 1 root root  798640 Oct  4 01:13 /sob/gamess/scr/H2CO.F22.002
-rw-r--r-- 1 root root  798640 Oct  4 01:13 /sob/gamess/scr/H2CO.F22.003
Thu Oct  4 01:13:56 CST 2018
0.083u 0.184s 0:06.03 4.3%	0+0k 0+16io 0pf+0w
