 Default is to use a total of   4 processors:
                                4 via shared-memory
                                1 via Linda
 Entering Link 1 = d:\study\G09W\l1.exe PID=      5420.
  
 Copyright (c) 1988,1990,1992,1993,1995,1998,2003,2009, Gaussian, Inc.
                  All Rights Reserved.
  
 This is part of the Gaussian(R) 09 program.  It is based on
 the Gaussian(R) 03 system (copyright 2003, Gaussian, Inc.),
 the Gaussian(R) 98 system (copyright 1998, Gaussian, Inc.),
 the Gaussian(R) 94 system (copyright 1995, Gaussian, Inc.),
 the Gaussian 92(TM) system (copyright 1992, Gaussian, Inc.),
 the Gaussian 90(TM) system (copyright 1990, Gaussian, Inc.),
 the Gaussian 88(TM) system (copyright 1988, Gaussian, Inc.),
 the Gaussian 86(TM) system (copyright 1986, Carnegie Mellon
 University), and the Gaussian 82(TM) system (copyright 1983,
 Carnegie Mellon University). Gaussian is a federally registered
 trademark of Gaussian, Inc.
  
 This software contains proprietary and confidential information,
 including trade secrets, belonging to Gaussian, Inc.
  
 This software is provided under written license and may be
 used, copied, transmitted, or stored only in accord with that
 written license.
  
 The following legend is applicable only to US Government
 contracts under FAR:
  
                    RESTRICTED RIGHTS LEGEND
  
 Use, reproduction and disclosure by the US Government is
 subject to restrictions as set forth in subparagraphs (a)
 and (c) of the Commercial Computer Software - Restricted
 Rights clause in FAR 52.227-19.
  
 Gaussian, Inc.
 340 Quinnipiac St., Bldg. 40, Wallingford CT 06492
  
  
 ---------------------------------------------------------------
 Warning -- This program may not be used in any manner that
 competes with the business of Gaussian, Inc. or will provide
 assistance to any competitor of Gaussian, Inc.  The licensee
 of this program is prohibited from giving any competitor of
 Gaussian, Inc. access to this program.  By using this program,
 the user acknowledges that Gaussian, Inc. is engaged in the
 business of creating and licensing software in the field of
 computational chemistry and represents and warrants to the
 licensee that it is not a competitor of Gaussian, Inc. and that
 it will not use this program in any manner prohibited above.
 ---------------------------------------------------------------
  

 Cite this work as:
 Gaussian 09, Revision A.02,
 M. J. Frisch, G. W. Trucks, H. B. Schlegel, G. E. Scuseria, 
 M. A. Robb, J. R. Cheeseman, G. Scalmani, V. Barone, B. Mennucci, 
 G. A. Petersson, H. Nakatsuji, M. Caricato, X. Li, H. P. Hratchian, 
 A. F. Izmaylov, J. Bloino, G. Zheng, J. L. Sonnenberg, M. Hada, 
 M. Ehara, K. Toyota, R. Fukuda, J. Hasegawa, M. Ishida, T. Nakajima, 
 Y. Honda, O. Kitao, H. Nakai, T. Vreven, J. A. Montgomery, Jr., 
 J. E. Peralta, F. Ogliaro, M. Bearpark, J. J. Heyd, E. Brothers, 
 K. N. Kudin, V. N. Staroverov, R. Kobayashi, J. Normand, 
 K. Raghavachari, A. Rendell, J. C. Burant, S. S. Iyengar, J. Tomasi, 
 M. Cossi, N. Rega, J. M. Millam, M. Klene, J. E. Knox, J. B. Cross, 
 V. Bakken, C. Adamo, J. Jaramillo, R. Gomperts, R. E. Stratmann, 
 O. Yazyev, A. J. Austin, R. Cammi, C. Pomelli, J. W. Ochterski, 
 R. L. Martin, K. Morokuma, V. G. Zakrzewski, G. A. Voth, 
 P. Salvador, J. J. Dannenberg, S. Dapprich, A. D. Daniels, 
 O. Farkas, J. B. Foresman, J. V. Ortiz, J. Cioslowski, 
 and D. J. Fox, Gaussian, Inc., Wallingford CT, 2009.
 
 ******************************************
 Gaussian 09:  IA32W-G09RevA.02 11-Jun-2009
                01-Aug-2013 
 ******************************************
 %chk=C:\gtest\N-phenylpyrrole_ext.chk
 ------------------------------------------------
 #p cam-b3lyp/6-31+g(d) td(nstates=5) IOp(9/40=4)
 ------------------------------------------------
 1/38=1/1;
 2/12=2,17=6,18=5,40=1/2;
 3/5=1,6=6,7=11,11=2,16=1,25=1,30=1,74=-40/1,2,8,3;
 4//1;
 5/5=2,38=5/2;
 8/6=1,10=2,108=5/1;
 9/40=4,41=5,42=1/14;
 6/7=2,8=2,9=2,10=2/1;
 99/5=1,9=1/99;
 Leave Link    1 at Thu Aug 01 11:40:13 2013, MaxMem=          0 cpu:       0.0
 (Enter d:\study\G09W\l101.exe)
 ------------------
 B3LYP/6-31G* opted
 ------------------
 Symbolic Z-matrix:
 Charge =  0 Multiplicity = 1
 C                     0.        1.12163   1.82508 
 C                     0.        0.7131    3.13457 
 C                     0.       -0.7131    3.13457 
 C                     0.       -1.12163   1.82508 
 N                     0.        0.        1.00627 
 H                     0.        2.11821   1.41565 
 H                     0.        1.36582   3.99708 
 H                     0.       -1.36582   3.99708 
 H                     0.       -2.11821   1.41565 
 C                     0.        0.       -0.41287 
 C                     0.       -1.20626  -1.13057 
 C                     0.        1.20626  -1.13057 
 C                     0.       -1.20042  -2.52387 
 H                     0.       -2.15724  -0.61186 
 C                     0.        1.20042  -2.52387 
 H                     0.        2.15724  -0.61186 
 C                     0.        0.       -3.23382 
 H                     0.       -2.14896  -3.05414 
 H                     0.        2.14896  -3.05414 
 H                     0.        0.       -4.31975 
 
 NAtoms=     20 NQM=     20 NQMF=      0 NMic=      0 NMicF=      0 NTot=     20.
                    Isotopes and Nuclear Properties:
 (Nuclear quadrupole moments (NQMom) in fm**2, nuclear magnetic moments (NMagM)
  in nuclear magnetons)

  Atom         1           2           3           4           5           6           7           8           9          10
 IAtWgt=          12          12          12          12          14           1           1           1           1          12
 AtmWgt=  12.0000000  12.0000000  12.0000000  12.0000000  14.0030740   1.0078250   1.0078250   1.0078250   1.0078250  12.0000000
 NucSpn=           0           0           0           0           2           1           1           1           1           0
 AtZEff=   0.0000000   0.0000000   0.0000000   0.0000000   0.0000000   0.0000000   0.0000000   0.0000000   0.0000000   0.0000000
 NQMom=    0.0000000   0.0000000   0.0000000   0.0000000   2.0440000   0.0000000   0.0000000   0.0000000   0.0000000   0.0000000
 NMagM=    0.0000000   0.0000000   0.0000000   0.0000000   0.4037610   2.7928460   2.7928460   2.7928460   2.7928460   0.0000000

  Atom        11          12          13          14          15          16          17          18          19          20
 IAtWgt=          12          12          12           1          12           1          12           1           1           1
 AtmWgt=  12.0000000  12.0000000  12.0000000   1.0078250  12.0000000   1.0078250  12.0000000   1.0078250   1.0078250   1.0078250
 NucSpn=           0           0           0           1           0           1           0           1           1           1
 AtZEff=   0.0000000   0.0000000   0.0000000   0.0000000   0.0000000   0.0000000   0.0000000   0.0000000   0.0000000   0.0000000
 NQMom=    0.0000000   0.0000000   0.0000000   0.0000000   0.0000000   0.0000000   0.0000000   0.0000000   0.0000000   0.0000000
 NMagM=    0.0000000   0.0000000   0.0000000   2.7928460   0.0000000   2.7928460   0.0000000   2.7928460   2.7928460   2.7928460
 Leave Link  101 at Thu Aug 01 11:40:13 2013, MaxMem=  196608000 cpu:       0.0
 (Enter d:\study\G09W\l202.exe)
                          Input orientation:                          
 ---------------------------------------------------------------------
 Center     Atomic      Atomic             Coordinates (Angstroms)
 Number     Number       Type             X           Y           Z
 ---------------------------------------------------------------------
      1          6           0        0.000000    1.121629    1.825079
      2          6           0        0.000000    0.713100    3.134574
      3          6           0        0.000000   -0.713100    3.134574
      4          6           0        0.000000   -1.121629    1.825079
      5          7           0        0.000000    0.000000    1.006273
      6          1           0        0.000000    2.118214    1.415653
      7          1           0        0.000000    1.365821    3.997077
      8          1           0        0.000000   -1.365821    3.997077
      9          1           0        0.000000   -2.118214    1.415653
     10          6           0        0.000000    0.000000   -0.412874
     11          6           0        0.000000   -1.206261   -1.130569
     12          6           0        0.000000    1.206261   -1.130569
     13          6           0        0.000000   -1.200418   -2.523874
     14          1           0        0.000000   -2.157238   -0.611860
     15          6           0        0.000000    1.200418   -2.523874
     16          1           0        0.000000    2.157238   -0.611860
     17          6           0        0.000000    0.000000   -3.233817
     18          1           0        0.000000   -2.148963   -3.054142
     19          1           0        0.000000    2.148963   -3.054142
     20          1           0        0.000000    0.000000   -4.319755
 ---------------------------------------------------------------------
                    Distance matrix (angstroms):
                    1          2          3          4          5
     1  C    0.000000
     2  C    1.371741   0.000000
     3  C    2.254109   1.426200   0.000000
     4  C    2.243258   2.254109   1.371741   0.000000
     5  N    1.388703   2.244588   2.244588   1.388703   0.000000
     6  H    1.077410   2.220143   3.312254   3.265611   2.157411
     7  H    2.185682   1.081645   2.250739   3.302269   3.287914
     8  H    3.302269   2.250739   1.081645   2.185682   3.287914
     9  H    3.265611   3.312254   2.220143   1.077410   2.157411
    10  C    2.503295   3.618411   3.618411   2.503295   1.419147
    11  C    3.762303   4.677114   4.293559   2.956859   2.453805
    12  C    2.956859   4.293559   4.677114   3.762303   2.453805
    13  C    4.930040   5.973239   5.679394   4.349667   3.728665
    14  H    4.085296   4.719598   4.015134   2.647859   2.696670
    15  C    4.349667   5.679394   5.973239   4.930040   3.728665
    16  H    2.647859   4.015134   4.719598   4.085296   2.696670
    17  C    5.181745   6.408191   6.408191   5.181745   4.240090
    18  H    5.873974   6.818476   6.353102   4.986202   4.594019
    19  H    4.986202   6.353102   6.818476   5.873974   4.594019
    20  H    6.246362   7.488360   7.488360   6.246362   5.326028
                    6          7          8          9         10
     6  H    0.000000
     7  H    2.688837   0.000000
     8  H    4.336156   2.731642   0.000000
     9  H    4.236428   4.336156   2.688837   0.000000
    10  C    2.798275   4.616615   4.616615   2.798275   0.000000
    11  C    4.187527   5.736581   5.130128   2.704608   1.403621
    12  C    2.704608   5.130128   5.736581   4.187527   1.403621
    13  C    5.151038   7.007737   6.523048   4.045024   2.428441
    14  H    4.731839   5.801228   4.676392   2.027889   2.166396
    15  C    4.045024   6.523048   7.007737   5.151038   2.428441
    16  H    2.027889   4.676392   5.801228   4.731839   2.166396
    17  C    5.109247   7.358756   7.358756   5.109247   2.820943
    18  H    6.179633   7.878667   7.094575   4.469901   3.405046
    19  H    4.469901   7.094575   7.878667   6.179633   3.405046
    20  H    6.114060   8.428236   8.428236   6.114060   3.906881
                   11         12         13         14         15
    11  C    0.000000
    12  C    2.412522   0.000000
    13  C    1.393317   2.780900   0.000000
    14  H    1.083243   3.403261   2.138060   0.000000
    15  C    2.780900   1.393317   2.400836   3.863891   0.000000
    16  H    3.403261   1.083243   3.863891   4.314476   2.138060
    17  C    2.424607   2.424607   1.394641   3.395340   1.394641
    18  H    2.142153   3.867514   1.086702   2.442296   3.391097
    19  H    3.867514   2.142153   3.391097   4.950566   1.086702
    20  H    3.409688   3.409688   2.160137   4.289774   2.160137
                   16         17         18         19         20
    16  H    0.000000
    17  C    3.395340   0.000000
    18  H    4.950566   2.156461   0.000000
    19  H    2.442296   2.156461   4.297926   0.000000
    20  H    4.289774   1.085938   2.493956   2.493956   0.000000
 Stoichiometry    C10H9N
 Framework group  C2V[C2(HCCN),SGV(C8H8)]
 Deg. of freedom    19
 Full point group                 C2V     NOp   4
 Largest Abelian subgroup         C2V     NOp   4
 Largest concise Abelian subgroup C2      NOp   2
                         Standard orientation:                         
 ---------------------------------------------------------------------
 Center     Atomic      Atomic             Coordinates (Angstroms)
 Number     Number       Type             X           Y           Z
 ---------------------------------------------------------------------
      1          6           0        0.000000    1.121629    1.825079
      2          6           0        0.000000    0.713100    3.134574
      3          6           0        0.000000   -0.713100    3.134574
      4          6           0        0.000000   -1.121629    1.825079
      5          7           0        0.000000    0.000000    1.006273
      6          1           0        0.000000    2.118214    1.415653
      7          1           0        0.000000    1.365821    3.997077
      8          1           0        0.000000   -1.365821    3.997077
      9          1           0        0.000000   -2.118214    1.415653
     10          6           0        0.000000    0.000000   -0.412874
     11          6           0        0.000000   -1.206261   -1.130569
     12          6           0        0.000000    1.206261   -1.130569
     13          6           0        0.000000   -1.200418   -2.523874
     14          1           0        0.000000   -2.157238   -0.611860
     15          6           0        0.000000    1.200418   -2.523874
     16          1           0        0.000000    2.157238   -0.611860
     17          6           0        0.000000    0.000000   -3.233817
     18          1           0        0.000000   -2.148963   -3.054142
     19          1           0        0.000000    2.148963   -3.054142
     20          1           0        0.000000    0.000000   -4.319755
 ---------------------------------------------------------------------
 Rotational constants (GHZ):      3.5243660      0.7062050      0.5883189
 Leave Link  202 at Thu Aug 01 11:40:13 2013, MaxMem=  196608000 cpu:       0.0
 (Enter d:\study\G09W\l301.exe)
 Standard basis: 6-31+G(d) (6D, 7F)
 Ernie: Thresh=  0.10000D-02 Tol=  0.10000D-05 Strict=F.
 There are    96 symmetry adapted basis functions of A1  symmetry.
 There are    23 symmetry adapted basis functions of A2  symmetry.
 There are    32 symmetry adapted basis functions of B1  symmetry.
 There are    76 symmetry adapted basis functions of B2  symmetry.
 Integral buffers will be    262144 words long.
 Raffenetti 2 integral format.
 Two-electron integral symmetry is turned on.
   227 basis functions,   388 primitive gaussians,   227 cartesian basis functions
    38 alpha electrons       38 beta electrons
       nuclear repulsion energy       541.4632088444 Hartrees.
 IExCor=20419 DFT=T Ex+Corr=CAM-B3LYP ExCW=0 ScaHFX=  1.000000
 ScaDFX=  1.000000  1.000000  1.000000  0.810000 ScalE2=  1.000000  1.000000
 IRadAn=      0 IRanWt=     -1 IRanGd=            0 ICorTp=0
  HFx wShort=  0.000000 wLong=  0.330000 cFull=  0.190000 cShort=  0.000000 cLong=  0.460000
  DFx wShort=  0.000000 wLong=  0.330000 cFull=  0.190000 cShort=  0.000000 cLong=  0.460000
 NAtoms=   20 NActive=   20 NUniq=   12 SFac= 2.08D+00 NAtFMM=   80 NAOKFM=F Big=F
 Leave Link  301 at Thu Aug 01 11:40:13 2013, MaxMem=  196608000 cpu:       0.0
 (Enter d:\study\G09W\l302.exe)
 NPDir=0 NMtPBC=     1 NCelOv=     1 NCel=       1 NClECP=     1 NCelD=      1
         NCelK=      1 NCelE2=     1 NClLst=     1 CellRange=     0.0.
 One-electron integrals computed using PRISM.
 One-electron integral symmetry used in STVInt
 NBasis=   227 RedAO= T  NBF=    96    23    32    76
 NBsUse=   227 1.00D-06 NBFU=    96    23    32    76
 Precomputing XC quadrature grid using
 IXCGrd= 2 IRadAn=           0 IRanWt=          -1 IRanGd=           0 AccXCQ= 1.00D-10.
 NRdTot=    1290 NPtTot=      164792 NUsed=      170809 NTot=      170825
 NSgBfM=   226   226   226   226   226 NAtAll=    20    20.
 Leave Link  302 at Thu Aug 01 11:40:13 2013, MaxMem=  196608000 cpu:       0.0
 (Enter d:\study\G09W\l308.exe)
 Leave Link  308 at Thu Aug 01 11:40:14 2013, MaxMem=  196608000 cpu:       1.0
 (Enter d:\study\G09W\l303.exe)
 DipDrv:  MaxL=1.
 Leave Link  303 at Thu Aug 01 11:40:14 2013, MaxMem=  196608000 cpu:       0.0
 (Enter d:\study\G09W\l401.exe)
 Harris functional with IExCor=20419 diagonalized for initial guess.
 ExpMin= 4.38D-02 ExpMax= 4.17D+03 ExpMxC= 6.27D+02 IAcc=2 IRadAn=         0 AccDes= 0.00D+00
 HarFok:  IExCor=20419 AccDes= 0.00D+00 IRadAn=         0 IDoV= 1
 ScaDFX=  1.000000  1.000000  1.000000  1.000000
 FoFCou: FMM=F IPFlag=           0 FMFlag=      100000 FMFlg1=           0
         NFxFlg=           0 DoJE=T BraDBF=F KetDBF=T FulRan=T
         Omega=  0.000000  0.000000  1.000000  0.000000  0.000000 ICntrl=     500 IOpCl=  0
         NMat0=    1 NMatS0=    1 NMatT0=    0 NMatD0=    1 NMtDS0=    0 NMtDT0=    0
         I1Cent=           4 NGrid=           0.
 Petite list used in FoFCou.
 Harris En= -423.177437058884    
 Initial guess orbital symmetries:
       Occupied  (A1) (A1) (B2) (A1) (B2) (A1) (A1) (B2) (B2) (A1)
                 (A1) (A1) (A1) (A1) (B2) (A1) (B2) (A1) (B2) (A1)
                 (B2) (A1) (A1) (B2) (A1) (B2) (A1) (B1) (B2) (B2)
                 (A1) (B1) (A1) (B2) (B1) (A2) (A2) (B1)
       Virtual   (B1) (A2) (A1) (A1) (B2) (A1) (B2) (B1) (A1) (B2)
                 (A2) (A1) (B1) (B1) (A1) (A2) (A1) (B2) (B1) (A2)
                 (B2) (B2) (A1) (A1) (B1) (B1) (B1) (A2) (A1) (B2)
                 (B2) (A1) (A1) (B2) (A2) (A1) (B1) (B2) (A1) (B2)
                 (B2) (A1) (A1) (B2) (A1) (A1) (B1) (A1) (B2) (B2)
                 (A1) (B2) (A1) (A1) (A1) (B2) (B2) (A1) (B2) (B2)
                 (A1) (A1) (B2) (A1) (B2) (B2) (A1) (B2) (B2) (A1)
                 (B1) (A1) (A2) (B1) (A1) (B2) (B2) (A1) (A2) (A2)
                 (B1) (A1) (B2) (B1) (A1) (B1) (A2) (B2) (B1) (A1)
                 (A1) (B2) (A1) (B2) (B2) (A1) (B2) (A1) (B2) (B1)
                 (A1) (A1) (B2) (B2) (A1) (A1) (B2) (B2) (A1) (B2)
                 (A1) (A2) (A1) (B1) (A1) (A1) (B2) (B2) (B1) (A2)
                 (B1) (A1) (B1) (A2) (B1) (A2) (B2) (A2) (A1) (B2)
                 (A1) (B2) (A1) (B2) (B1) (A1) (A1) (A1) (A1) (B2)
                 (A1) (B2) (A1) (A1) (B2) (A2) (B1) (B2) (A1) (A2)
                 (B2) (B1) (B1) (A2) (A1) (B1) (A2) (B2) (A1) (A2)
                 (A1) (B1) (B2) (B2) (A2) (A1) (A1) (B2) (A1) (B2)
                 (A1) (B2) (A1) (B2) (B2) (A1) (B2) (A1) (A1) (A1)
                 (B2) (A1) (B2) (A1) (B2) (A1) (A1) (B2) (A1)
 The electronic state of the initial guess is 1-A1.
 Leave Link  401 at Thu Aug 01 11:40:15 2013, MaxMem=  196608000 cpu:       1.0
 (Enter d:\study\G09W\l502.exe)
 Closed shell SCF:
 Requested convergence on RMS density matrix=1.00D-08 within 128 cycles.
 Requested convergence on MAX density matrix=1.00D-06.
 Requested convergence on             energy=1.00D-06.
 No special actions if energy rises.
 Using DIIS extrapolation, IDIIS=  1040.
 Integral symmetry usage will be decided dynamically.
       170637 words used for storage of precomputed grid.
 IEnd=      346363 IEndB=      346363 NGot=   196608000 MDV=   196330034
 LenX=   196330034 LenY=   196278064
 Fock matrices will be formed incrementally for  20 cycles.

 Cycle   1  Pass 1  IDiag  1:
 FoFJK:  IHMeth= 1 ICntrl=     0 DoSepK=T KAlg= 1 I1Cent= 0 FoldK=F
 FoFCou: FMM=F IPFlag=           0 FMFlag=      100000 FMFlg1=           0
         NFxFlg=           0 DoJE=T BraDBF=F KetDBF=F FulRan=T
         Omega=  0.000000  0.000000  1.000000  0.000000  0.000000 ICntrl=     500 IOpCl=  0
         NMat0=    1 NMatS0=    1 NMatT0=    0 NMatD0=    1 NMtDS0=    0 NMtDT0=    0
         I1Cent=           0 NGrid=           0.
 Petite list used in FoFCou.
 E= -440.835430182621    
 DIIS: error= 6.13D-02 at cycle   1 NSaved=   1.
 NSaved= 1 IEnMin= 1 EnMin= -440.835430182621     IErMin= 1 ErrMin= 6.13D-02
 ErrMax= 6.13D-02 EMaxC= 1.00D-01 BMatC= 3.83D-01 BMatP= 3.83D-01
 IDIUse=3 WtCom= 3.87D-01 WtEn= 6.13D-01
 Coeff-Com:  0.100D+01
 Coeff-En:   0.100D+01
 Coeff:      0.100D+01
 Gap=     0.260 Goal=   None    Shift=    0.000
 GapD=    0.260 DampG=1.000 DampE=0.500 DampFc=0.5000 IDamp=-1.
 Damping current iteration by 5.00D-01
 RMSDP=1.93D-02 MaxDP=6.82D-01              OVMax= 2.10D-01

 Cycle   2  Pass 1  IDiag  1:
 RMSU=  5.73D-03    CP:  9.41D-01
 FoFJK:  IHMeth= 1 ICntrl=     0 DoSepK=T KAlg= 1 I1Cent= 0 FoldK=F
 E= -440.892201483082     Delta-E=       -0.056771300461 Rises=F Damp=T
 DIIS: error= 3.12D-02 at cycle   2 NSaved=   2.
 NSaved= 2 IEnMin= 2 EnMin= -440.892201483082     IErMin= 2 ErrMin= 3.12D-02
 ErrMax= 3.12D-02 EMaxC= 1.00D-01 BMatC= 7.93D-02 BMatP= 3.83D-01
 IDIUse=3 WtCom= 6.88D-01 WtEn= 3.12D-01
 Coeff-Com: -0.196D+00 0.120D+01
 Coeff-En:   0.142D+00 0.858D+00
 Coeff:     -0.903D-01 0.109D+01
 Gap=     0.283 Goal=   None    Shift=    0.000
 RMSDP=2.00D-02 MaxDP=1.12D+00 DE=-5.68D-02 OVMax= 1.82D-01

 Cycle   3  Pass 1  IDiag  1:
 RMSU=  4.88D-03    CP:  7.31D-01  1.31D+00
 FoFJK:  IHMeth= 1 ICntrl=     0 DoSepK=T KAlg= 1 I1Cent= 0 FoldK=F
 E= -440.950179294138     Delta-E=       -0.057977811055 Rises=F Damp=F
 DIIS: error= 1.70D-02 at cycle   3 NSaved=   3.
 NSaved= 3 IEnMin= 3 EnMin= -440.950179294138     IErMin= 3 ErrMin= 1.70D-02
 ErrMax= 1.70D-02 EMaxC= 1.00D-01 BMatC= 3.16D-02 BMatP= 7.93D-02
 IDIUse=3 WtCom= 8.30D-01 WtEn= 1.70D-01
 Coeff-Com: -0.259D+00 0.556D+00 0.703D+00
 Coeff-En:   0.000D+00 0.000D+00 0.100D+01
 Coeff:     -0.215D+00 0.462D+00 0.754D+00
 Gap=     0.287 Goal=   None    Shift=    0.000
 RMSDP=2.62D-03 MaxDP=7.43D-02 DE=-5.80D-02 OVMax= 7.37D-02

 Cycle   4  Pass 1  IDiag  1:
 RMSU=  1.46D-03    CP:  7.20D-01  1.39D+00  8.47D-01
 FoFJK:  IHMeth= 1 ICntrl=     0 DoSepK=T KAlg= 1 I1Cent= 0 FoldK=F
 E= -440.976051513912     Delta-E=       -0.025872219774 Rises=F Damp=F
 DIIS: error= 4.84D-03 at cycle   4 NSaved=   4.
 NSaved= 4 IEnMin= 4 EnMin= -440.976051513912     IErMin= 4 ErrMin= 4.84D-03
 ErrMax= 4.84D-03 EMaxC= 1.00D-01 BMatC= 4.39D-03 BMatP= 3.16D-02
 IDIUse=3 WtCom= 9.52D-01 WtEn= 4.84D-02
 Coeff-Com: -0.874D-01 0.182D+00 0.397D+00 0.508D+00
 Coeff-En:   0.000D+00 0.000D+00 0.121D+00 0.879D+00
 Coeff:     -0.832D-01 0.174D+00 0.384D+00 0.526D+00
 Gap=     0.285 Goal=   None    Shift=    0.000
 RMSDP=1.14D-03 MaxDP=4.65D-02 DE=-2.59D-02 OVMax= 1.85D-02

 Cycle   5  Pass 1  IDiag  1:
 RMSU=  2.72D-04    CP:  7.12D-01  1.39D+00  9.15D-01  6.67D-01
 FoFJK:  IHMeth= 1 ICntrl=     0 DoSepK=T KAlg= 1 I1Cent= 0 FoldK=F
 E= -440.980417359973     Delta-E=       -0.004365846061 Rises=F Damp=F
 DIIS: error= 3.52D-04 at cycle   5 NSaved=   5.
 NSaved= 5 IEnMin= 5 EnMin= -440.980417359973     IErMin= 5 ErrMin= 3.52D-04
 ErrMax= 3.52D-04 EMaxC= 1.00D-01 BMatC= 2.38D-05 BMatP= 4.39D-03
 IDIUse=3 WtCom= 9.96D-01 WtEn= 3.52D-03
 Coeff-Com: -0.292D-02 0.546D-02 0.428D-01 0.118D+00 0.836D+00
 Coeff-En:   0.000D+00 0.000D+00 0.000D+00 0.000D+00 0.100D+01
 Coeff:     -0.291D-02 0.544D-02 0.427D-01 0.118D+00 0.837D+00
 Gap=     0.285 Goal=   None    Shift=    0.000
 RMSDP=1.51D-04 MaxDP=8.48D-03 DE=-4.37D-03 OVMax= 2.64D-03

 Cycle   6  Pass 1  IDiag  1:
 RMSU=  8.51D-05    CP:  7.12D-01  1.40D+00  9.10D-01  6.60D-01  1.06D+00
 FoFJK:  IHMeth= 1 ICntrl=     0 DoSepK=T KAlg= 1 I1Cent= 0 FoldK=F
 E= -440.980437368230     Delta-E=       -0.000020008257 Rises=F Damp=F
 DIIS: error= 2.32D-04 at cycle   6 NSaved=   6.
 NSaved= 6 IEnMin= 6 EnMin= -440.980437368230     IErMin= 6 ErrMin= 2.32D-04
 ErrMax= 2.32D-04 EMaxC= 1.00D-01 BMatC= 8.96D-06 BMatP= 2.38D-05
 IDIUse=3 WtCom= 9.98D-01 WtEn= 2.32D-03
 Coeff-Com:  0.115D-01-0.245D-01-0.349D-01-0.149D-01 0.440D+00 0.623D+00
 Coeff-En:   0.000D+00 0.000D+00 0.000D+00 0.000D+00 0.153D+00 0.847D+00
 Coeff:      0.115D-01-0.245D-01-0.349D-01-0.148D-01 0.439D+00 0.623D+00
 Gap=     0.285 Goal=   None    Shift=    0.000
 RMSDP=1.85D-04 MaxDP=1.26D-02 DE=-2.00D-05 OVMax= 1.05D-03

 Cycle   7  Pass 1  IDiag  1:
 RMSU=  2.96D-05    CP:  7.11D-01  1.39D+00  9.18D-01  6.82D-01  1.05D+00
                    CP:  7.08D-01
 FoFJK:  IHMeth= 1 ICntrl=     0 DoSepK=T KAlg= 1 I1Cent= 0 FoldK=F
 E= -440.980447295976     Delta-E=       -0.000009927746 Rises=F Damp=F
 DIIS: error= 2.53D-05 at cycle   7 NSaved=   7.
 NSaved= 7 IEnMin= 7 EnMin= -440.980447295976     IErMin= 7 ErrMin= 2.53D-05
 ErrMax= 2.53D-05 EMaxC= 1.00D-01 BMatC= 1.17D-07 BMatP= 8.96D-06
 IDIUse=1 WtCom= 1.00D+00 WtEn= 0.00D+00
 Coeff-Com:  0.203D-02-0.424D-02-0.631D-02-0.584D-02 0.344D-01 0.103D+00
 Coeff-Com:  0.877D+00
 Coeff:      0.203D-02-0.424D-02-0.631D-02-0.584D-02 0.344D-01 0.103D+00
 Coeff:      0.877D+00
 Gap=     0.285 Goal=   None    Shift=    0.000
 RMSDP=9.56D-06 MaxDP=3.39D-04 DE=-9.93D-06 OVMax= 2.14D-04

 Cycle   8  Pass 1  IDiag  1:
 RMSU=  5.45D-06    CP:  7.11D-01  1.39D+00  9.17D-01  6.82D-01  1.05D+00
                    CP:  7.44D-01  1.01D+00
 FoFJK:  IHMeth= 1 ICntrl=     0 DoSepK=T KAlg= 1 I1Cent= 0 FoldK=F
 E= -440.980447459874     Delta-E=       -0.000000163898 Rises=F Damp=F
 DIIS: error= 1.29D-05 at cycle   8 NSaved=   8.
 NSaved= 8 IEnMin= 8 EnMin= -440.980447459874     IErMin= 8 ErrMin= 1.29D-05
 ErrMax= 1.29D-05 EMaxC= 1.00D-01 BMatC= 3.74D-08 BMatP= 1.17D-07
 IDIUse=1 WtCom= 1.00D+00 WtEn= 0.00D+00
 Coeff-Com: -0.523D-03 0.118D-02 0.166D-02-0.107D-02-0.469D-01-0.362D-01
 Coeff-Com:  0.399D+00 0.682D+00
 Coeff:     -0.523D-03 0.118D-02 0.166D-02-0.107D-02-0.469D-01-0.362D-01
 Coeff:      0.399D+00 0.682D+00
 Gap=     0.285 Goal=   None    Shift=    0.000
 RMSDP=3.11D-06 MaxDP=6.64D-05 DE=-1.64D-07 OVMax= 1.19D-04

 Cycle   9  Pass 1  IDiag  1:
 RMSU=  1.72D-06    CP:  7.11D-01  1.39D+00  9.17D-01  6.82D-01  1.05D+00
                    CP:  7.41D-01  1.03D+00  9.47D-01
 FoFJK:  IHMeth= 1 ICntrl=     0 DoSepK=T KAlg= 1 I1Cent= 0 FoldK=F
 E= -440.980447507693     Delta-E=       -0.000000047818 Rises=F Damp=F
 DIIS: error= 5.95D-06 at cycle   9 NSaved=   9.
 NSaved= 9 IEnMin= 9 EnMin= -440.980447507693     IErMin= 9 ErrMin= 5.95D-06
 ErrMax= 5.95D-06 EMaxC= 1.00D-01 BMatC= 1.83D-09 BMatP= 3.74D-08
 IDIUse=1 WtCom= 1.00D+00 WtEn= 0.00D+00
 Coeff-Com: -0.391D-03 0.834D-03 0.134D-02 0.591D-03-0.155D-01-0.195D-01
 Coeff-Com: -0.201D-01 0.138D+00 0.915D+00
 Coeff:     -0.391D-03 0.834D-03 0.134D-02 0.591D-03-0.155D-01-0.195D-01
 Coeff:     -0.201D-01 0.138D+00 0.915D+00
 Gap=     0.285 Goal=   None    Shift=    0.000
 RMSDP=2.59D-06 MaxDP=1.36D-04 DE=-4.78D-08 OVMax= 3.93D-05

 Cycle  10  Pass 1  IDiag  1:
 RMSU=  7.94D-07    CP:  7.11D-01  1.39D+00  9.17D-01  6.82D-01  1.05D+00
                    CP:  7.46D-01  1.02D+00  1.05D+00  1.12D+00
 FoFJK:  IHMeth= 1 ICntrl=     0 DoSepK=T KAlg= 1 I1Cent= 0 FoldK=F
 E= -440.980447511930     Delta-E=       -0.000000004237 Rises=F Damp=F
 DIIS: error= 1.12D-06 at cycle  10 NSaved=  10.
 NSaved=10 IEnMin=10 EnMin= -440.980447511930     IErMin=10 ErrMin= 1.12D-06
 ErrMax= 1.12D-06 EMaxC= 1.00D-01 BMatC= 1.92D-10 BMatP= 1.83D-09
 IDIUse=1 WtCom= 1.00D+00 WtEn= 0.00D+00
 Coeff-Com: -0.831D-04 0.172D-03 0.288D-03 0.214D-03-0.182D-02-0.341D-02
 Coeff-Com: -0.318D-01-0.818D-02 0.246D+00 0.798D+00
 Coeff:     -0.831D-04 0.172D-03 0.288D-03 0.214D-03-0.182D-02-0.341D-02
 Coeff:     -0.318D-01-0.818D-02 0.246D+00 0.798D+00
 Gap=     0.285 Goal=   None    Shift=    0.000
 RMSDP=4.28D-07 MaxDP=2.49D-05 DE=-4.24D-09 OVMax= 1.56D-05

 Cycle  11  Pass 1  IDiag  1:
 RMSU=  2.11D-07    CP:  7.11D-01  1.39D+00  9.17D-01  6.82D-01  1.05D+00
                    CP:  7.46D-01  1.02D+00  1.05D+00  1.12D+00  1.08D+00
 FoFJK:  IHMeth= 1 ICntrl=     0 DoSepK=T KAlg= 1 I1Cent= 0 FoldK=F
 E= -440.980447512353     Delta-E=       -0.000000000423 Rises=F Damp=F
 DIIS: error= 7.21D-07 at cycle  11 NSaved=  11.
 NSaved=11 IEnMin=11 EnMin= -440.980447512353     IErMin=11 ErrMin= 7.21D-07
 ErrMax= 7.21D-07 EMaxC= 1.00D-01 BMatC= 3.92D-11 BMatP= 1.92D-10
 IDIUse=1 WtCom= 1.00D+00 WtEn= 0.00D+00
 Coeff-Com:  0.442D-04-0.964D-04-0.147D-03-0.237D-04 0.237D-02 0.267D-02
 Coeff-Com: -0.615D-02-0.285D-01-0.103D+00 0.304D+00 0.828D+00
 Coeff:      0.442D-04-0.964D-04-0.147D-03-0.237D-04 0.237D-02 0.267D-02
 Coeff:     -0.615D-02-0.285D-01-0.103D+00 0.304D+00 0.828D+00
 Gap=     0.285 Goal=   None    Shift=    0.000
 RMSDP=4.49D-07 MaxDP=3.19D-05 DE=-4.23D-10 OVMax= 6.04D-06

 Cycle  12  Pass 1  IDiag  1:
 RMSU=  9.00D-08    CP:  7.11D-01  1.39D+00  9.17D-01  6.82D-01  1.05D+00
                    CP:  7.46D-01  1.02D+00  1.05D+00  1.14D+00  1.19D+00
                    CP:  1.03D+00
 FoFJK:  IHMeth= 1 ICntrl=     0 DoSepK=T KAlg= 1 I1Cent= 0 FoldK=F
 E= -440.980447512457     Delta-E=       -0.000000000104 Rises=F Damp=F
 DIIS: error= 8.83D-08 at cycle  12 NSaved=  12.
 NSaved=12 IEnMin=12 EnMin= -440.980447512457     IErMin=12 ErrMin= 8.83D-08
 ErrMax= 8.83D-08 EMaxC= 1.00D-01 BMatC= 1.34D-12 BMatP= 3.92D-11
 IDIUse=1 WtCom= 1.00D+00 WtEn= 0.00D+00
 Coeff-Com:  0.258D-05-0.475D-05-0.107D-04-0.825D-05-0.583D-04-0.179D-04
 Coeff-Com:  0.279D-02 0.343D-02-0.192D-01-0.785D-01-0.173D-01 0.111D+01
 Coeff:      0.258D-05-0.475D-05-0.107D-04-0.825D-05-0.583D-04-0.179D-04
 Coeff:      0.279D-02 0.343D-02-0.192D-01-0.785D-01-0.173D-01 0.111D+01
 Gap=     0.285 Goal=   None    Shift=    0.000
 RMSDP=1.06D-07 MaxDP=6.87D-06 DE=-1.04D-10 OVMax= 1.79D-06

 Cycle  13  Pass 1  IDiag  1:
 RMSU=  2.16D-08    CP:  7.11D-01  1.39D+00  9.17D-01  6.82D-01  1.05D+00
                    CP:  7.47D-01  1.02D+00  1.05D+00  1.14D+00  1.22D+00
                    CP:  1.11D+00  1.06D+00
 FoFJK:  IHMeth= 1 ICntrl=     0 DoSepK=T KAlg= 1 I1Cent= 0 FoldK=F
 E= -440.980447512439     Delta-E=        0.000000000018 Rises=F Damp=F
 DIIS: error= 2.25D-08 at cycle  13 NSaved=  13.
 NSaved=13 IEnMin=12 EnMin= -440.980447512457     IErMin=13 ErrMin= 2.25D-08
 ErrMax= 2.25D-08 EMaxC= 1.00D-01 BMatC= 9.05D-14 BMatP= 1.34D-12
 IDIUse=1 WtCom= 1.00D+00 WtEn= 0.00D+00
 Coeff-Com: -0.739D-06 0.181D-05 0.198D-05-0.122D-05-0.858D-04-0.896D-04
 Coeff-Com:  0.940D-03 0.200D-02-0.138D-02-0.315D-01-0.259D-01 0.280D+00
 Coeff-Com:  0.776D+00
 Coeff:     -0.739D-06 0.181D-05 0.198D-05-0.122D-05-0.858D-04-0.896D-04
 Coeff:      0.940D-03 0.200D-02-0.138D-02-0.315D-01-0.259D-01 0.280D+00
 Coeff:      0.776D+00
 Gap=     0.285 Goal=   None    Shift=    0.000
 RMSDP=7.98D-09 MaxDP=1.72D-07 DE= 1.80D-11 OVMax= 1.95D-07

 SCF Done:  E(RCAM-B3LYP) =  -440.980447512     A.U. after   13 cycles
             Convg  =    0.7979D-08             -V/T =  2.0097
 KE= 4.367622882026D+02 PE=-2.103730122256D+03 EE= 6.845241776961D+02
 Leave Link  502 at Thu Aug 01 11:41:05 2013, MaxMem=  196608000 cpu:      50.0
 (Enter d:\study\G09W\l801.exe)
 ExpMin= 4.38D-02 ExpMax= 4.17D+03 ExpMxC= 6.27D+02 IAcc=3 IRadAn=         5 AccDes= 0.00D+00
 HarFok:  IExCor=  205 AccDes= 0.00D+00 IRadAn=         5 IDoV=-2
 ScaDFX=  1.000000  1.000000  1.000000  1.000000
 Largest valence mixing into a core orbital is  5.93D-05
 Largest core mixing into a valence orbital is  1.19D-05
 Range of M.O.s used for correlation:    12   227
 NBasis=   227 NAE=    38 NBE=    38 NFC=    11 NFV=     0
 NROrb=    216 NOA=    27 NOB=    27 NVA=   189 NVB=   189

 **** Warning!!: The largest alpha MO coefficient is  0.20502649D+03

 Leave Link  801 at Thu Aug 01 11:41:06 2013, MaxMem=  196608000 cpu:       1.0
 (Enter d:\study\G09W\l914.exe)
 RHF ground state
 MDV=   196608000 DFT=T DoStab=F Mixed=T DoRPA=T DoScal=F NonHer=T
 Would need an additional   853600000 words for in-memory AO integral storage.
 Making orbital integer symmetry assigments:
 Orbital symmetries:
       Occupied  (A1) (A1) (B2) (A1) (A1) (B2) (A1) (B2) (A1) (A1)
                 (B2) (A1) (A1) (A1) (B2) (A1) (B2) (A1) (B2) (A1)
                 (B2) (A1) (A1) (B2) (A1) (B1) (B2) (A1) (B2) (B2)
                 (A1) (B1) (A1) (B2) (B1) (A2) (A2) (B1)
       Virtual   (B1) (A2) (A1) (B2) (A1) (A1) (B2) (B1) (A1) (B2)
                 (A1) (B1) (B1) (A2) (A1) (A2) (B2) (A1) (B1) (A2)
                 (B2) (B2) (A1) (A1) (B1) (B1) (B2) (B1) (A1) (A2)
                 (B2) (A1) (B2) (A1) (A2) (A1) (B2) (A1) (B1) (B2)
                 (A1) (B2) (A1) (B2) (A1) (A1) (B1) (A1) (B2) (B2)
                 (A1) (B2) (A1) (A1) (A1) (B2) (B2) (B2) (A1) (A1)
                 (B2) (B2) (A1) (A1) (B2) (B2) (A1) (B2) (B2) (A1)
                 (B1) (A1) (A2) (A1) (B2) (B1) (B2) (A2) (A1) (B1)
                 (A2) (B2) (B1) (A1) (B1) (A1) (A2) (B1) (B2) (A1)
                 (A1) (B2) (A1) (B2) (B2) (A1) (B2) (A1) (B2) (B1)
                 (A1) (A1) (B2) (B2) (A1) (B2) (A1) (A1) (B2) (B2)
                 (A1) (A1) (A2) (B1) (A1) (A1) (B2) (B2) (A2) (B1)
                 (A1) (B1) (A2) (B1) (B2) (B1) (A2) (A2) (A1) (B2)
                 (B2) (A1) (A1) (B1) (A1) (B2) (A1) (A1) (A1) (A1)
                 (B2) (B2) (A1) (A1) (B2) (B1) (A2) (B2) (A1) (A2)
                 (B2) (B1) (B1) (A2) (A1) (B1) (A2) (B2) (A1) (A2)
                 (B1) (A1) (B2) (B2) (A2) (A1) (A1) (B2) (A1) (A1)
                 (B2) (B2) (A1) (B2) (B2) (A1) (B2) (A1) (A1) (A1)
                 (B2) (A1) (B2) (A1) (B2) (A1) (A1) (B2) (A1)
    20 initial guesses have been made.
 Convergence on wavefunction:    0.001000000000000
 Davidson Disk Diagonalization:  ConvIn= 1.00D-03 SkipCon=T Conv= 1.00D-03.
 Max sub-space:   200 roots to seek:    20 dimension of matrix:  10206
 Iteration     1 Dimension    20 NMult    20
 Cannot handle 2e integral symmetry, ISym2E=1.
 CISAX:  IP=  4 NPass=   1 NMax=    20.
 CISAX will form    20 AO SS matrices at one time.
 NMat=    20 NSing=    20.
 FoFJK:  IHMeth= 1 ICntrl=     0 DoSepK=T KAlg= 1 I1Cent= 0 FoldK=F
 FoFCou: FMM=F IPFlag=           0 FMFlag=      100000 FMFlg1=           0
         NFxFlg=           0 DoJE=F BraDBF=F KetDBF=F FulRan=T
         Omega=  0.000000  0.000000  1.000000  0.000000  0.000000 ICntrl=     500 IOpCl=  0
         NMat0=   20 NMatS0=   20 NMatT0=    0 NMatD0=   20 NMtDS0=    0 NMtDT0=    0
         I1Cent=           0 NGrid=           0.
 Symmetry not used in FoFCou.
 Cannot handle 2e integral symmetry, ISym2E=1.
 CISAX:  IP=  4 NPass=   1 NMax=    20.
 CISAX will form    20 AO SS matrices at one time.
 NMat=    20 NSing=    20.
 FoFJK:  IHMeth= 1 ICntrl=     0 DoSepK=T KAlg= 1 I1Cent= 0 FoldK=F
 New state      1 was old state      3
 New state      2 was old state      1
 New state      3 was old state      2
 No map to state      5
 Excitation Energies [eV] at current iteration:
 Root      1 :     5.402049358629439
 Root      2 :     5.582081263616621
 Root      3 :     5.738640501432045
 Root      4 :     6.098376755062397
 Root      5 :     6.103041878143745
 Iteration     2 Dimension    30 NMult    30
 Cannot handle 2e integral symmetry, ISym2E=1.
 CISAX:  IP=  1 NPass=   1 NMax=    10.
 CISAX will form    10 AO SS matrices at one time.
 NMat=    10 NSing=    10.
 FoFJK:  IHMeth= 1 ICntrl=     0 DoSepK=T KAlg= 1 I1Cent= 0 FoldK=F
 Cannot handle 2e integral symmetry, ISym2E=1.
 CISAX:  IP=  1 NPass=   1 NMax=    10.
 CISAX will form    10 AO SS matrices at one time.
 NMat=    10 NSing=    10.
 FoFJK:  IHMeth= 1 ICntrl=     0 DoSepK=T KAlg= 1 I1Cent= 0 FoldK=F
 New state      1 was old state      2
 Root      1 not converged, maximum delta is    0.177709601700141
 New state      2 was old state      1
 Root      2 not converged, maximum delta is    0.128827008576965
 Root      3 not converged, maximum delta is    0.086947345308053
 New state      4 was old state      5
 Root      4 not converged, maximum delta is    0.069628835641491
 New state      5 was old state      4
 Root      5 not converged, maximum delta is    0.153321313586046
 Excitation Energies [eV] at current iteration:
 Root      1 :     5.102193045026508   Change is   -0.479888218590113
 Root      2 :     5.103040722204112   Change is   -0.299008636425328
 Root      3 :     5.270913890393770   Change is   -0.467726611038276
 Root      4 :     5.947264757659613   Change is   -0.155777120484131
 Root      5 :     5.977680073675694   Change is   -0.120696681386703
 Iteration     3 Dimension    40 NMult    40
 Cannot handle 2e integral symmetry, ISym2E=1.
 CISAX:  IP=  1 NPass=   1 NMax=    10.
 CISAX will form    10 AO SS matrices at one time.
 NMat=    10 NSing=    10.
 FoFJK:  IHMeth= 1 ICntrl=     0 DoSepK=T KAlg= 1 I1Cent= 0 FoldK=F
 Cannot handle 2e integral symmetry, ISym2E=1.
 CISAX:  IP=  1 NPass=   1 NMax=    10.
 CISAX will form    10 AO SS matrices at one time.
 NMat=    10 NSing=    10.
 FoFJK:  IHMeth= 1 ICntrl=     0 DoSepK=T KAlg= 1 I1Cent= 0 FoldK=F
 Root      1 not converged, maximum delta is    0.027998963764614
 Root      2 not converged, maximum delta is    0.028973193436296
 Root      3 not converged, maximum delta is    0.014368748021045
 Root      4 not converged, maximum delta is    0.022676635548453
 Root      5 not converged, maximum delta is    0.020239257050950
 Excitation Energies [eV] at current iteration:
 Root      1 :     5.065846658823618   Change is   -0.036346386202890
 Root      2 :     5.076216792726028   Change is   -0.026823929478083
 Root      3 :     5.249919519062992   Change is   -0.020994371330778
 Root      4 :     5.937575128692138   Change is   -0.009689628967475
 Root      5 :     5.968102406424153   Change is   -0.009577667251541
 Iteration     4 Dimension    50 NMult    50
 Cannot handle 2e integral symmetry, ISym2E=1.
 CISAX:  IP=  1 NPass=   1 NMax=    10.
 CISAX will form    10 AO SS matrices at one time.
 NMat=    10 NSing=    10.
 FoFJK:  IHMeth= 1 ICntrl=     0 DoSepK=T KAlg= 1 I1Cent= 0 FoldK=F
 Cannot handle 2e integral symmetry, ISym2E=1.
 CISAX:  IP=  1 NPass=   1 NMax=    10.
 CISAX will form    10 AO SS matrices at one time.
 NMat=    10 NSing=    10.
 FoFJK:  IHMeth= 1 ICntrl=     0 DoSepK=T KAlg= 1 I1Cent= 0 FoldK=F
 Root      1 not converged, maximum delta is    0.006623721568034
 Root      2 not converged, maximum delta is    0.006187569127411
 Root      3 not converged, maximum delta is    0.008842145340283
 Root      4 not converged, maximum delta is    0.009666217151758
 Root      5 not converged, maximum delta is    0.003745234515942
 Excitation Energies [eV] at current iteration:
 Root      1 :     5.061967499471314   Change is   -0.003879159352303
 Root      2 :     5.074080166709312   Change is   -0.002136626016717
 Root      3 :     5.245631990760276   Change is   -0.004287528302716
 Root      4 :     5.936694221064623   Change is   -0.000880907627515
 Root      5 :     5.967035683780085   Change is   -0.001066722644068
 Iteration     5 Dimension    60 NMult    60
 Cannot handle 2e integral symmetry, ISym2E=1.
 CISAX:  IP=  1 NPass=   1 NMax=    10.
 CISAX will form    10 AO SS matrices at one time.
 NMat=    10 NSing=    10.
 FoFJK:  IHMeth= 1 ICntrl=     0 DoSepK=T KAlg= 1 I1Cent= 0 FoldK=F
 Cannot handle 2e integral symmetry, ISym2E=1.
 CISAX:  IP=  1 NPass=   1 NMax=    10.
 CISAX will form    10 AO SS matrices at one time.
 NMat=    10 NSing=    10.
 FoFJK:  IHMeth= 1 ICntrl=     0 DoSepK=T KAlg= 1 I1Cent= 0 FoldK=F
 Root      1 not converged, maximum delta is    0.003013694093009
 Root      2 not converged, maximum delta is    0.001379822251485
 Root      3 not converged, maximum delta is    0.004647227962275
 Root      4 not converged, maximum delta is    0.003884770118930
 Root      5 not converged, maximum delta is    0.001977800817922
 Excitation Energies [eV] at current iteration:
 Root      1 :     5.061505941573981   Change is   -0.000461557897334
 Root      2 :     5.073914740791992   Change is   -0.000165425917320
 Root      3 :     5.245151696017099   Change is   -0.000480294743177
 Root      4 :     5.936552957474890   Change is   -0.000141263589733
 Root      5 :     5.966895333178298   Change is   -0.000140350601787
 Iteration     6 Dimension    70 NMult    70
 Cannot handle 2e integral symmetry, ISym2E=1.
 CISAX:  IP=  1 NPass=   1 NMax=    10.
 CISAX will form    10 AO SS matrices at one time.
 NMat=    10 NSing=    10.
 FoFJK:  IHMeth= 1 ICntrl=     0 DoSepK=T KAlg= 1 I1Cent= 0 FoldK=F
 Cannot handle 2e integral symmetry, ISym2E=1.
 CISAX:  IP=  1 NPass=   1 NMax=    10.
 CISAX will form    10 AO SS matrices at one time.
 NMat=    10 NSing=    10.
 FoFJK:  IHMeth= 1 ICntrl=     0 DoSepK=T KAlg= 1 I1Cent= 0 FoldK=F
 Root      1 has converged.
 Root      2 has converged.
 Root      3 has converged.
 Root      4 not converged, maximum delta is    0.001151307368190
 Root      5 has converged.
 Excitation Energies [eV] at current iteration:
 Root      1 :     5.061468979840393   Change is   -0.000036961733588
 Root      2 :     5.073907526402073   Change is   -0.000007214389918
 Root      3 :     5.245125649712310   Change is   -0.000026046304788
 Root      4 :     5.936532400493808   Change is   -0.000020556981083
 Root      5 :     5.966880908163764   Change is   -0.000014425014535
 Iteration     7 Dimension    72 NMult    72
 Cannot handle 2e integral symmetry, ISym2E=1.
 CISAX:  IP=  1 NPass=   1 NMax=     2.
 CISAX will form     2 AO SS matrices at one time.
 NMat=     2 NSing=     2.
 FoFJK:  IHMeth= 1 ICntrl=     0 DoSepK=T KAlg= 1 I1Cent= 0 FoldK=F
 Cannot handle 2e integral symmetry, ISym2E=1.
 CISAX:  IP=  1 NPass=   1 NMax=     2.
 CISAX will form     2 AO SS matrices at one time.
 NMat=     2 NSing=     2.
 FoFJK:  IHMeth= 1 ICntrl=     0 DoSepK=T KAlg= 1 I1Cent= 0 FoldK=F
 Root      1 has converged.
 Root      2 has converged.
 Root      3 has converged.
 Root      4 has converged.
 Root      5 has converged.
 Excitation Energies [eV] at current iteration:
 Root      1 :     5.061468979840369   Change is   -0.000000000000023
 Root      2 :     5.073907526402061   Change is   -0.000000000000013
 Root      3 :     5.245125649712312   Change is    0.000000000000002
 Root      4 :     5.936530777488263   Change is   -0.000001623005545
 Root      5 :     5.966880908163753   Change is   -0.000000000000011
 Convergence achieved on expansion vectors.
 ***********************************************************************
 Excited states from <AA,BB:AA,BB> singles matrix:
 ***********************************************************************
 
 1PDM for each excited state written to RWF  633
 Ground to excited state transition electric dipole moments (Au):
       state          X           Y           Z        Dip. S.      Osc.
         1         0.0000      0.0000      1.7813      3.1729      0.3935
         2         0.0000      0.3345      0.0000      0.1119      0.0139
         3         0.0000      0.4076      0.0000      0.1662      0.0214
         4         0.0000      0.0000      0.0000      0.0000      0.0000
         5         0.0000      0.0000      1.0700      1.1449      0.1674
 Ground to excited state transition velocity dipole moments (Au):
       state          X           Y           Z        Dip. S.      Osc.
         1         0.0000      0.0000     -0.3303      0.1091      0.3910
         2         0.0000     -0.0652      0.0000      0.0043      0.0152
         3         0.0000     -0.0748      0.0000      0.0056      0.0194
         4         0.0000      0.0000      0.0000      0.0000      0.0000
         5         0.0000      0.0000     -0.2202      0.0485      0.1474
 Ground to excited state transition magnetic dipole moments (Au):
       state          X           Y           Z
         1         0.0000      0.0000      0.0000
         2        -0.5032      0.0000      0.0000
         3         1.5306      0.0000      0.0000
         4         0.0000      0.0000     -0.4553
         5         0.0000      0.0000      0.0000
 <0|del|b> * <b|rxdel|0> + <0|del|b> * <b|delr+rdel|0>
 Rotatory Strengths (R) in cgs (10**-40 erg-esu-cm/Gauss)
       state          XX          YY          ZZ    R(velocity)
         1         0.0000      0.0000      0.0000      0.0000
 Total R(velocity) tensor for State=          1
                 1             2             3 
      1   0.000000D+00  0.665261D+01  0.000000D+00
      2  -0.283295D+02  0.000000D+00  0.000000D+00
      3   0.000000D+00  0.000000D+00  0.000000D+00
 R(velocity) tensor in inp. orien. for State=          1
                 1             2             3 
      1   0.000000D+00  0.665261D+01  0.000000D+00
      2  -0.283295D+02  0.000000D+00  0.000000D+00
      3   0.000000D+00  0.000000D+00  0.000000D+00
         2         0.0000      0.0000      0.0000      0.0000
 Total R(velocity) tensor for State=          2
                 1             2             3 
      1   0.000000D+00  0.000000D+00  0.000000D+00
      2  -0.284139D+02  0.000000D+00  0.000000D+00
      3   0.000000D+00  0.000000D+00  0.000000D+00
 R(velocity) tensor in inp. orien. for State=          2
                 1             2             3 
      1   0.000000D+00  0.000000D+00  0.000000D+00
      2  -0.284139D+02  0.000000D+00  0.000000D+00
      3   0.000000D+00  0.000000D+00  0.000000D+00
         3         0.0000      0.0000      0.0000      0.0000
 Total R(velocity) tensor for State=          3
                 1             2             3 
      1   0.000000D+00  0.000000D+00  0.000000D+00
      2   0.142478D+03  0.000000D+00  0.000000D+00
      3   0.000000D+00  0.000000D+00  0.000000D+00
 R(velocity) tensor in inp. orien. for State=          3
                 1             2             3 
      1   0.000000D+00  0.000000D+00  0.000000D+00
      2   0.142478D+03  0.000000D+00  0.000000D+00
      3   0.000000D+00  0.000000D+00  0.000000D+00
         4         0.0000      0.0000      0.0000      0.0000
 Total R(velocity) tensor for State=          4
                 1             2             3 
      1   0.000000D+00  0.000000D+00  0.000000D+00
      2   0.000000D+00  0.000000D+00  0.000000D+00
      3   0.000000D+00  0.000000D+00  0.000000D+00
 R(velocity) tensor in inp. orien. for State=          4
                 1             2             3 
      1   0.000000D+00  0.000000D+00  0.000000D+00
      2   0.000000D+00  0.000000D+00  0.000000D+00
      3   0.000000D+00  0.000000D+00  0.000000D+00
         5         0.0000      0.0000      0.0000      0.0000
 Total R(velocity) tensor for State=          5
                 1             2             3 
      1   0.000000D+00  0.363864D+02  0.000000D+00
      2  -0.415769D+02  0.000000D+00  0.000000D+00
      3   0.000000D+00  0.000000D+00  0.000000D+00
 R(velocity) tensor in inp. orien. for State=          5
                 1             2             3 
      1   0.000000D+00  0.363864D+02  0.000000D+00
      2  -0.415769D+02  0.000000D+00  0.000000D+00
      3   0.000000D+00  0.000000D+00  0.000000D+00
 1/2[<0|r|b>*<b|rxdel|0> + (<0|rxdel|b>*<b|r|0>)*]
 Rotatory Strengths (R) in cgs (10**-40 erg-esu-cm/Gauss)
       state          XX          YY          ZZ     R(length)     R(au)
         1         0.0000      0.0000      0.0000      0.0000      0.0000
         2         0.0000      0.0000      0.0000      0.0000      0.0000
         3         0.0000      0.0000      0.0000      0.0000      0.0000
         4         0.0000      0.0000      0.0000      0.0000      0.0000
         5         0.0000      0.0000      0.0000      0.0000      0.0000
  1/2[<0|del|b>*<b|r|0> + (<0|r|b>*<b|del|0>)*] (Au)
       state          X           Y           Z        Dip. S.   Osc.(frdel)
         1         0.0000      0.0000     -0.5883      0.5883      0.3922
         2         0.0000     -0.0218      0.0000      0.0218      0.0146
         3         0.0000     -0.0305      0.0000      0.0305      0.0203
         4         0.0000      0.0000      0.0000      0.0000      0.0000
         5         0.0000      0.0000     -0.2356      0.2356      0.1570
 Ground to excited state transition densities written to RWF  633

 Excitation energies and oscillator strengths:
 
 Excited State   1:      Singlet-A1     5.0615 eV  244.96 nm  f=0.3935  <S**2>=0.000
      12 -> 41        -0.00036
      12 -> 43         0.00012
      12 -> 44         0.00022
      12 -> 47         0.00024
      12 -> 49         0.00022
      12 -> 53         0.00057
      12 -> 56        -0.00036
      12 -> 61        -0.00056
      12 -> 62        -0.00068
      12 -> 67         0.00061
      12 -> 70        -0.00197
      12 -> 72         0.00153
      12 -> 74         0.00077
      12 -> 79         0.00163
      12 -> 81        -0.00069
      12 -> 83         0.00111
      12 -> 84        -0.00107
      12 -> 86         0.00142
      12 -> 89         0.00043
      12 -> 91        -0.00066
      12 -> 92         0.00212
      12 -> 97         0.00012
      12 -> 98         0.00291
      12 ->102        -0.00145
      12 ->105        -0.00089
      12 ->108        -0.00057
      12 ->110        -0.00043
      12 ->112        -0.00107
      12 ->124         0.00027
      12 ->128        -0.00037
      12 ->129        -0.00021
      12 ->134        -0.00020
      12 ->139         0.00015
      12 ->143         0.00030
      12 ->145        -0.00031
      12 ->149        -0.00014
      12 ->150        -0.00025
      12 ->153         0.00041
      12 ->159         0.00053
      12 ->170        -0.00053
      12 ->171        -0.00032
      12 ->173        -0.00028
      12 ->175         0.00031
      12 ->176         0.00013
      12 ->181         0.00024
      12 ->187         0.00016
      12 ->193         0.00031
      12 ->197         0.00013
      12 ->217        -0.00018
      12 ->225        -0.00011
      12 ->227         0.00010
      13 -> 41         0.00138
      13 -> 43         0.00062
      13 -> 44        -0.00014
      13 -> 47        -0.00086
      13 -> 49        -0.00064
      13 -> 53         0.00148
      13 -> 56         0.00058
      13 -> 67        -0.00118
      13 -> 70        -0.00032
      13 -> 72         0.00059
      13 -> 74         0.00045
      13 -> 76        -0.00067
      13 -> 79        -0.00145
      13 -> 81        -0.00042
      13 -> 83         0.00216
      13 -> 84        -0.00090
      13 -> 86         0.00093
      13 -> 89         0.00046
      13 -> 91         0.00075
      13 -> 92         0.00108
      13 -> 93         0.00180
      13 -> 97        -0.00093
      13 -> 98         0.00210
      13 ->101         0.00055
      13 ->102         0.00039
      13 ->105        -0.00179
      13 ->108        -0.00393
      13 ->110         0.00152
      13 ->112         0.00058
      13 ->117         0.00048
      13 ->124        -0.00072
      13 ->129         0.00070
      13 ->134        -0.00020
      13 ->136        -0.00021
      13 ->139        -0.00041
      13 ->145        -0.00013
      13 ->146         0.00029
      13 ->149        -0.00059
      13 ->150        -0.00022
      13 ->153        -0.00019
      13 ->154         0.00122
      13 ->159         0.00057
      13 ->167        -0.00015
      13 ->170        -0.00040
      13 ->171        -0.00027
      13 ->173        -0.00041
      13 ->175         0.00015
      13 ->176        -0.00065
      13 ->177        -0.00050
      13 ->178         0.00020
      13 ->181        -0.00011
      13 ->182        -0.00010
      13 ->193        -0.00014
      13 ->197        -0.00021
      13 ->214         0.00019
      13 ->216        -0.00014
      13 ->227         0.00013
      14 -> 41         0.00040
      14 -> 43        -0.00189
      14 -> 44         0.00014
      14 -> 47        -0.00066
      14 -> 49        -0.00128
      14 -> 53         0.00042
      14 -> 56        -0.00029
      14 -> 61         0.00025
      14 -> 62        -0.00026
      14 -> 67        -0.00161
      14 -> 70         0.00133
      14 -> 72        -0.00101
      14 -> 74        -0.00278
      14 -> 76         0.00143
      14 -> 79        -0.00145
      14 -> 81         0.00166
      14 -> 84         0.00176
      14 -> 86        -0.00068
      14 -> 89        -0.00270
      14 -> 91         0.00062
      14 -> 92        -0.00174
      14 -> 93         0.00140
      14 -> 97        -0.00111
      14 -> 98        -0.00197
      14 ->101        -0.00115
      14 ->102         0.00011
      14 ->105         0.00018
      14 ->108        -0.00138
      14 ->110        -0.00018
      14 ->117        -0.00193
      14 ->122        -0.00012
      14 ->124         0.00034
      14 ->131         0.00020
      14 ->134         0.00034
      14 ->136        -0.00024
      14 ->139         0.00023
      14 ->140        -0.00041
      14 ->143         0.00042
      14 ->145         0.00045
      14 ->146         0.00041
      14 ->149         0.00037
      14 ->150         0.00051
      14 ->153        -0.00030
      14 ->154         0.00084
      14 ->159        -0.00076
      14 ->170         0.00019
      14 ->171         0.00046
      14 ->173        -0.00011
      14 ->175        -0.00020
      14 ->178         0.00060
      14 ->182         0.00043
      14 ->187        -0.00015
      14 ->200        -0.00012
      14 ->216        -0.00015
      15 -> 42        -0.00114
      15 -> 45        -0.00068
      15 -> 48        -0.00214
      15 -> 55         0.00103
      15 -> 59        -0.00147
      15 -> 60         0.00093
      15 -> 65         0.00062
      15 -> 69         0.00056
      15 -> 71         0.00241
      15 -> 75        -0.00069
      15 -> 78        -0.00017
      15 -> 80         0.00175
      15 -> 87        -0.00158
      15 -> 88         0.00058
      15 -> 90        -0.00176
      15 -> 94         0.00121
      15 -> 95        -0.00188
      15 -> 99        -0.00091
      15 ->100        -0.00233
      15 ->103         0.00196
      15 ->104         0.00016
      15 ->106        -0.00132
      15 ->107        -0.00154
      15 ->113         0.00105
      15 ->115         0.00150
      15 ->120        -0.00013
      15 ->130         0.00041
      15 ->132         0.00017
      15 ->135         0.00049
      15 ->137         0.00063
      15 ->141        -0.00031
      15 ->142         0.00028
      15 ->144         0.00060
      15 ->148         0.00089
      15 ->155         0.00087
      15 ->156        -0.00022
      15 ->163         0.00096
      15 ->168        -0.00012
      15 ->174         0.00011
      15 ->179         0.00030
      15 ->180        -0.00038
      15 ->183        -0.00028
      15 ->186        -0.00028
      15 ->189        -0.00025
      15 ->206        -0.00031
      15 ->212        -0.00013
      15 ->215        -0.00010
      15 ->223        -0.00015
      16 -> 43        -0.00193
      16 -> 44         0.00376
      16 -> 47        -0.00019
      16 -> 49        -0.00165
      16 -> 53        -0.00026
      16 -> 56        -0.00020
      16 -> 61         0.00082
      16 -> 62         0.00119
      16 -> 67        -0.00071
      16 -> 70        -0.00131
      16 -> 72         0.00133
      16 -> 74        -0.00164
      16 -> 76         0.00404
      16 -> 79        -0.00087
      16 -> 81         0.00084
      16 -> 83        -0.00102
      16 -> 84         0.00222
      16 -> 86         0.00112
      16 -> 89        -0.00277
      16 -> 91         0.00247
      16 -> 92        -0.00194
      16 -> 93         0.00055
      16 -> 97        -0.00112
      16 -> 98        -0.00038
      16 ->101        -0.00337
      16 ->102        -0.00182
      16 ->105        -0.00058
      16 ->108         0.00070
      16 ->110        -0.00221
      16 ->112        -0.00081
      16 ->117        -0.00237
      16 ->122         0.00128
      16 ->124         0.00085
      16 ->131        -0.00018
      16 ->134         0.00046
      16 ->136         0.00054
      16 ->139         0.00016
      16 ->140        -0.00050
      16 ->143         0.00180
      16 ->145         0.00054
      16 ->146         0.00026
      16 ->149         0.00152
      16 ->150         0.00062
      16 ->153        -0.00055
      16 ->159        -0.00076
      16 ->167         0.00044
      16 ->170        -0.00048
      16 ->171         0.00028
      16 ->173        -0.00026
      16 ->175         0.00014
      16 ->176         0.00030
      16 ->178        -0.00027
      16 ->182         0.00064
      16 ->187         0.00023
      16 ->193         0.00020
      16 ->197         0.00020
      16 ->200        -0.00037
      16 ->204        -0.00035
      16 ->217        -0.00011
      16 ->222        -0.00013
      17 -> 42        -0.00164
      17 -> 45        -0.00191
      17 -> 48        -0.00034
      17 -> 55        -0.00062
      17 -> 59        -0.00072
      17 -> 60        -0.00068
      17 -> 65         0.00078
      17 -> 69         0.00036
      17 -> 71         0.00137
      17 -> 75        -0.00049
      17 -> 78         0.00122
      17 -> 80         0.00236
      17 -> 82         0.00222
      17 -> 87        -0.00124
      17 -> 88        -0.00305
      17 -> 90        -0.00081
      17 -> 94         0.00026
      17 -> 95        -0.00087
      17 -> 96        -0.00090
      17 ->100         0.00109
      17 ->103        -0.00110
      17 ->104         0.00163
      17 ->107         0.00104
      17 ->115        -0.00103
      17 ->120         0.00130
      17 ->127        -0.00028
      17 ->130         0.00032
      17 ->132         0.00027
      17 ->133         0.00059
      17 ->135        -0.00085
      17 ->137         0.00018
      17 ->141         0.00033
      17 ->142        -0.00050
      17 ->148        -0.00024
      17 ->155         0.00044
      17 ->156        -0.00026
      17 ->163         0.00050
      17 ->168         0.00015
      17 ->183         0.00023
      17 ->186        -0.00028
      17 ->189        -0.00021
      17 ->196        -0.00011
      17 ->201         0.00012
      17 ->213        -0.00014
      18 -> 43         0.00389
      18 -> 44        -0.00050
      18 -> 47         0.00143
      18 -> 49         0.00229
      18 -> 56         0.00026
      18 -> 61        -0.00049
      18 -> 62        -0.00126
      18 -> 67        -0.00154
      18 -> 70        -0.00058
      18 -> 72         0.00105
      18 -> 74         0.00292
      18 -> 76         0.00030
      18 -> 79         0.00183
      18 -> 81         0.00120
      18 -> 83        -0.00086
      18 -> 84        -0.00071
      18 -> 86        -0.00202
      18 -> 89        -0.00160
      18 -> 91        -0.00265
      18 -> 92         0.00126
      18 -> 93        -0.00077
      18 -> 97         0.00176
      18 -> 98        -0.00304
      18 ->101        -0.00072
      18 ->102         0.00329
      18 ->105         0.00286
      18 ->108         0.00071
      18 ->110        -0.00050
      18 ->117        -0.00129
      18 ->122        -0.00130
      18 ->124         0.00159
      18 ->128        -0.00017
      18 ->129        -0.00140
      18 ->131         0.00110
      18 ->134        -0.00018
      18 ->139         0.00057
      18 ->140        -0.00090
      18 ->143        -0.00135
      18 ->145        -0.00011
      18 ->146        -0.00122
      18 ->149         0.00073
      18 ->150        -0.00041
      18 ->153         0.00030
      18 ->154        -0.00020
      18 ->159         0.00012
      18 ->167         0.00041
      18 ->171         0.00054
      18 ->173        -0.00015
      18 ->175        -0.00014
      18 ->176         0.00013
      18 ->177         0.00036
      18 ->178         0.00024
      18 ->187        -0.00031
      18 ->193         0.00019
      18 ->197         0.00023
      18 ->205        -0.00016
      18 ->211         0.00016
      18 ->214        -0.00029
      18 ->216        -0.00018
      18 ->220         0.00013
      19 -> 42        -0.00265
      19 -> 45        -0.00089
      19 -> 48        -0.00045
      19 -> 55         0.00126
      19 -> 59        -0.00058
      19 -> 65        -0.00138
      19 -> 69        -0.00055
      19 -> 71         0.00163
      19 -> 75        -0.00092
      19 -> 78         0.00149
      19 -> 80         0.00274
      19 -> 82         0.00194
      19 -> 87        -0.00072
      19 -> 88        -0.00107
      19 -> 90         0.00175
      19 -> 94        -0.00096
      19 -> 95         0.00044
      19 -> 96         0.00094
      19 -> 99         0.00482
      19 ->100        -0.00673
      19 ->103         0.00089
      19 ->104        -0.00122
      19 ->106        -0.00267
      19 ->107        -0.00173
      19 ->113         0.00106
      19 ->115        -0.00040
      19 ->120        -0.00351
      19 ->127         0.00066
      19 ->130         0.00039
      19 ->132         0.00045
      19 ->133        -0.00019
      19 ->137        -0.00045
      19 ->141        -0.00105
      19 ->142         0.00231
      19 ->144        -0.00037
      19 ->147         0.00033
      19 ->155         0.00064
      19 ->163         0.00012
      19 ->169         0.00021
      19 ->174         0.00015
      19 ->179         0.00035
      19 ->180        -0.00043
      19 ->186         0.00016
      19 ->196        -0.00027
      19 ->201        -0.00025
      19 ->202        -0.00033
      19 ->209         0.00027
      19 ->210         0.00018
      19 ->215        -0.00016
      19 ->219        -0.00014
      20 -> 41        -0.00168
      20 -> 43         0.00073
      20 -> 44         0.00306
      20 -> 47         0.00055
      20 -> 49        -0.00014
      20 -> 53        -0.00038
      20 -> 56        -0.00072
      20 -> 61        -0.00106
      20 -> 62         0.00198
      20 -> 67         0.00032
      20 -> 70        -0.00202
      20 -> 72        -0.00134
      20 -> 74         0.00060
      20 -> 76        -0.00106
      20 -> 79        -0.00054
      20 -> 81        -0.00275
      20 -> 83         0.00098
      20 -> 84        -0.00166
      20 -> 86        -0.00164
      20 -> 89        -0.00261
      20 -> 91         0.00086
      20 -> 92        -0.00110
      20 -> 93         0.00091
      20 -> 97         0.00056
      20 -> 98         0.00338
      20 ->101         0.00484
      20 ->102        -0.00363
      20 ->105        -0.00076
      20 ->108        -0.00470
      20 ->110         0.00241
      20 ->112         0.00057
      20 ->117         0.00071
      20 ->122        -0.00061
      20 ->124        -0.00046
      20 ->128        -0.00133
      20 ->129         0.00075
      20 ->131         0.00056
      20 ->134         0.00042
      20 ->136        -0.00025
      20 ->139        -0.00021
      20 ->140        -0.00191
      20 ->143         0.00062
      20 ->145        -0.00052
      20 ->146         0.00035
      20 ->149        -0.00141
      20 ->150        -0.00082
      20 ->153        -0.00026
      20 ->154         0.00071
      20 ->159         0.00046
      20 ->171         0.00025
      20 ->173         0.00025
      20 ->175        -0.00023
      20 ->176        -0.00042
      20 ->177        -0.00019
      20 ->178         0.00052
      20 ->182        -0.00015
      20 ->187        -0.00014
      20 ->197         0.00016
      20 ->200         0.00020
      20 ->204         0.00013
      20 ->208         0.00011
      20 ->211         0.00014
      20 ->214        -0.00019
      20 ->216        -0.00018
      21 -> 42        -0.00199
      21 -> 45         0.00141
      21 -> 48        -0.00500
      21 -> 55        -0.00135
      21 -> 59        -0.00174
      21 -> 60         0.00062
      21 -> 65         0.00126
      21 -> 69         0.00191
      21 -> 71         0.00264
      21 -> 75        -0.00201
      21 -> 78         0.00412
      21 -> 80         0.00110
      21 -> 82         0.00323
      21 -> 87        -0.00383
      21 -> 88         0.00101
      21 -> 90        -0.00181
      21 -> 94        -0.00261
      21 -> 95         0.00250
      21 -> 96        -0.00108
      21 -> 99         0.00361
      21 ->100        -0.00317
      21 ->104         0.00152
      21 ->106         0.00164
      21 ->107         0.00253
      21 ->113        -0.00070
      21 ->115        -0.00077
      21 ->120        -0.00036
      21 ->127         0.00099
      21 ->130         0.00026
      21 ->132         0.00033
      21 ->135        -0.00119
      21 ->137        -0.00053
      21 ->141         0.00031
      21 ->142         0.00101
      21 ->147         0.00017
      21 ->148        -0.00019
      21 ->156        -0.00069
      21 ->163         0.00032
      21 ->168         0.00041
      21 ->169         0.00032
      21 ->179        -0.00028
      21 ->180         0.00020
      21 ->183        -0.00013
      21 ->186        -0.00028
      21 ->189        -0.00031
      21 ->196         0.00017
      21 ->201        -0.00031
      21 ->202        -0.00019
      21 ->206        -0.00011
      21 ->212         0.00012
      21 ->215        -0.00013
      22 -> 41         0.00084
      22 -> 43         0.00412
      22 -> 44        -0.00095
      22 -> 47         0.00042
      22 -> 49        -0.00182
      22 -> 53        -0.00077
      22 -> 56        -0.00093
      22 -> 61         0.00169
      22 -> 62        -0.00137
      22 -> 67        -0.00078
      22 -> 70        -0.00019
      22 -> 72         0.00238
      22 -> 74         0.00062
      22 -> 76        -0.00210
      22 -> 79         0.00014
      22 -> 81        -0.00054
      22 -> 83        -0.00147
      22 -> 84        -0.00131
      22 -> 86        -0.00065
      22 -> 89        -0.00023
      22 -> 91        -0.00034
      22 -> 92         0.00056
      22 -> 98        -0.00061
      22 ->101         0.00059
      22 ->102        -0.00073
      22 ->105         0.00113
      22 ->108        -0.00193
      22 ->110         0.00090
      22 ->112        -0.00133
      22 ->122        -0.00074
      22 ->124        -0.00068
      22 ->129         0.00075
      22 ->131         0.00082
      22 ->134         0.00075
      22 ->136         0.00042
      22 ->140         0.00015
      22 ->143        -0.00022
      22 ->145         0.00013
      22 ->146        -0.00030
      22 ->149        -0.00028
      22 ->153         0.00014
      22 ->154         0.00017
      22 ->159         0.00017
      22 ->167         0.00015
      22 ->171         0.00016
      22 ->173        -0.00025
      22 ->175         0.00062
      22 ->176         0.00037
      22 ->178         0.00022
      22 ->181         0.00011
      22 ->193         0.00015
      22 ->197         0.00017
      22 ->216        -0.00011
      23 -> 41        -0.00935
      23 -> 43         0.00022
      23 -> 44        -0.00386
      23 -> 47         0.00177
      23 -> 49         0.00464
      23 -> 53        -0.00310
      23 -> 56        -0.00101
      23 -> 61        -0.00025
      23 -> 62         0.00297
      23 -> 67         0.00456
      23 -> 70         0.00083
      23 -> 72        -0.00554
      23 -> 74         0.00055
      23 -> 76        -0.00189
      23 -> 83        -0.00364
      23 -> 84         0.00054
      23 -> 86        -0.00237
      23 -> 89         0.00124
      23 -> 91        -0.00119
      23 -> 92        -0.00136
      23 -> 93        -0.00029
      23 -> 97        -0.00024
      23 -> 98         0.00017
      23 ->101        -0.00275
      23 ->102         0.00027
      23 ->105        -0.00027
      23 ->108        -0.00317
      23 ->110        -0.00276
      23 ->117        -0.00168
      23 ->122         0.00084
      23 ->124         0.00079
      23 ->128        -0.00155
      23 ->129         0.00134
      23 ->131         0.00130
      23 ->136         0.00027
      23 ->139         0.00072
      23 ->140         0.00112
      23 ->143        -0.00019
      23 ->145         0.00024
      23 ->146        -0.00024
      23 ->149         0.00052
      23 ->150         0.00034
      23 ->153        -0.00044
      23 ->154        -0.00028
      23 ->167         0.00011
      23 ->173        -0.00077
      23 ->175        -0.00012
      23 ->176         0.00039
      23 ->177        -0.00022
      23 ->178        -0.00061
      23 ->181        -0.00011
      23 ->182         0.00043
      23 ->197        -0.00015
      23 ->200        -0.00018
      23 ->204        -0.00020
      23 ->205        -0.00016
      23 ->208        -0.00021
      23 ->211        -0.00013
      23 ->214         0.00019
      23 ->216        -0.00011
      24 -> 42        -0.00023
      24 -> 45         0.00094
      24 -> 48         0.00351
      24 -> 55         0.00234
      24 -> 59         0.00101
      24 -> 60        -0.00145
      24 -> 65        -0.00175
      24 -> 69        -0.00080
      24 -> 71        -0.00138
      24 -> 75         0.00158
      24 -> 78        -0.00218
      24 -> 80        -0.00171
      24 -> 82        -0.00195
      24 -> 87         0.00501
      24 -> 88        -0.00205
      24 -> 90         0.00049
      24 -> 94         0.00092
      24 -> 95         0.00219
      24 -> 96         0.00149
      24 -> 99        -0.00083
      24 ->100         0.00205
      24 ->103        -0.00359
      24 ->104        -0.00369
      24 ->106        -0.00118
      24 ->107         0.01034
      24 ->113        -0.00369
      24 ->115        -0.00109
      24 ->120         0.00115
      24 ->127         0.00146
      24 ->130        -0.00139
      24 ->132         0.00056
      24 ->133        -0.00126
      24 ->135        -0.00080
      24 ->137        -0.00339
      24 ->141         0.00253
      24 ->144         0.00078
      24 ->147         0.00051
      24 ->148        -0.00037
      24 ->155        -0.00067
      24 ->156         0.00035
      24 ->163        -0.00038
      24 ->174        -0.00032
      24 ->179        -0.00051
      24 ->180         0.00052
      24 ->183         0.00021
      24 ->186         0.00018
      24 ->189         0.00019
      24 ->196         0.00013
      24 ->201         0.00035
      24 ->212         0.00028
      24 ->215         0.00030
      25 -> 41        -0.00208
      25 -> 43         0.00189
      25 -> 44         0.00206
      25 -> 47         0.00301
      25 -> 49         0.00062
      25 -> 53        -0.00313
      25 -> 56        -0.00022
      25 -> 61        -0.00256
      25 -> 62         0.00081
      25 -> 67         0.00250
      25 -> 70         0.00080
      25 -> 74         0.00177
      25 -> 76        -0.00055
      25 -> 79         0.00054
      25 -> 81        -0.00382
      25 -> 83        -0.00088
      25 -> 84        -0.00193
      25 -> 86        -0.00038
      25 -> 89         0.00047
      25 -> 91        -0.00259
      25 -> 92        -0.00030
      25 -> 93        -0.00112
      25 -> 97         0.00352
      25 ->101         0.00728
      25 ->102         0.00023
      25 ->108        -0.00096
      25 ->110        -0.00062
      25 ->117         0.00278
      25 ->122         0.00048
      25 ->124        -0.00044
      25 ->128        -0.00161
      25 ->129        -0.00019
      25 ->131        -0.00084
      25 ->136         0.00051
      25 ->139         0.00017
      25 ->140         0.00044
      25 ->143        -0.00031
      25 ->145        -0.00015
      25 ->149        -0.00080
      25 ->153        -0.00036
      25 ->154        -0.00021
      25 ->159         0.00052
      25 ->167        -0.00035
      25 ->170         0.00057
      25 ->171        -0.00048
      25 ->173        -0.00033
      25 ->175        -0.00015
      25 ->176         0.00020
      25 ->177        -0.00054
      25 ->178        -0.00026
      25 ->181         0.00048
      25 ->182        -0.00031
      25 ->193        -0.00016
      25 ->197        -0.00019
      25 ->204         0.00034
      25 ->214         0.00011
      25 ->218         0.00012
      25 ->220        -0.00011
      26 -> 39         0.02124
      26 -> 46        -0.00594
      26 -> 50         0.00506
      26 -> 51        -0.00418
      26 -> 57        -0.00584
      26 -> 63         0.00284
      26 -> 64        -0.00158
      26 -> 66         0.00535
      26 -> 77        -0.00554
      26 ->109        -0.00056
      26 ->114         0.00014
      26 ->118         0.00019
      26 ->121        -0.00047
      26 ->123         0.00150
      26 ->126         0.00174
      26 ->138        -0.00169
      26 ->152         0.00065
      26 ->158        -0.00132
      26 ->160        -0.00029
      26 ->162        -0.00069
      26 ->164        -0.00043
      26 ->172         0.00031
      26 ->184        -0.00010
      26 ->190         0.00017
      26 ->194        -0.00011
      26 ->199         0.00044
      27 -> 42         0.00233
      27 -> 45        -0.00106
      27 -> 48         0.00307
      27 -> 55        -0.00125
      27 -> 59         0.00079
      27 -> 60        -0.00038
      27 -> 65        -0.00080
      27 -> 69        -0.00065
      27 -> 71        -0.00354
      27 -> 75         0.00043
      27 -> 78        -0.00082
      27 -> 80        -0.00112
      27 -> 82        -0.00430
      27 -> 87         0.00121
      27 -> 88         0.00288
      27 -> 90         0.00392
      27 -> 94        -0.00028
      27 -> 95         0.00040
      27 -> 96        -0.00080
      27 -> 99         0.00141
      27 ->100         0.00073
      27 ->103         0.00122
      27 ->104        -0.00279
      27 ->106        -0.00221
      27 ->107        -0.00016
      27 ->113         0.00025
      27 ->115         0.00224
      27 ->120         0.00018
      27 ->127         0.00150
      27 ->130        -0.00038
      27 ->132         0.00024
      27 ->133         0.00017
      27 ->135        -0.00033
      27 ->137        -0.00091
      27 ->141         0.00031
      27 ->142         0.00029
      27 ->144         0.00021
      27 ->147        -0.00054
      27 ->148        -0.00075
      27 ->156         0.00023
      27 ->163         0.00051
      27 ->168        -0.00050
      27 ->169        -0.00031
      27 ->174         0.00020
      27 ->179         0.00026
      27 ->180        -0.00058
      27 ->183        -0.00034
      27 ->186        -0.00056
      27 ->196         0.00018
      27 ->201         0.00045
      27 ->206        -0.00059
      27 ->212         0.00014
      27 ->213         0.00013
      27 ->215         0.00014
      28 -> 41        -0.00313
      28 -> 43        -0.00689
      28 -> 44         0.00029
      28 -> 47        -0.00039
      28 -> 49         0.00057
      28 -> 53         0.00083
      28 -> 56         0.00134
      28 -> 61        -0.00214
      28 -> 62         0.00350
      28 -> 67         0.00684
      28 -> 70        -0.00030
      28 -> 72        -0.00099
      28 -> 74         0.00090
      28 -> 76        -0.00099
      28 -> 79         0.00014
      28 -> 81        -0.00507
      28 -> 83         0.00383
      28 -> 84        -0.00127
      28 -> 86         0.00171
      28 -> 89         0.00626
      28 -> 91        -0.00221
      28 -> 92         0.00022
      28 -> 93         0.00106
      28 -> 97         0.00120
      28 -> 98         0.00459
      28 ->101         0.00509
      28 ->102        -0.00303
      28 ->105         0.00579
      28 ->108        -0.00110
      28 ->110         0.00181
      28 ->112        -0.00013
      28 ->117         0.00169
      28 ->122        -0.00309
      28 ->124        -0.00053
      28 ->128        -0.00036
      28 ->129        -0.00152
      28 ->131         0.00053
      28 ->134         0.00156
      28 ->136        -0.00068
      28 ->139         0.00057
      28 ->140        -0.00151
      28 ->143         0.00022
      28 ->145        -0.00020
      28 ->146        -0.00036
      28 ->149        -0.00073
      28 ->150        -0.00100
      28 ->153         0.00049
      28 ->159         0.00084
      28 ->167         0.00036
      28 ->171         0.00040
      28 ->173        -0.00013
      28 ->177         0.00011
      28 ->181        -0.00043
      28 ->182        -0.00061
      28 ->187        -0.00021
      28 ->193         0.00033
      28 ->197         0.00020
      28 ->200         0.00025
      28 ->204         0.00036
      28 ->205        -0.00022
      28 ->207        -0.00010
      28 ->208         0.00019
      28 ->211         0.00029
      28 ->214        -0.00044
      28 ->216        -0.00012
      29 -> 42        -0.00730
      29 -> 45         0.00013
      29 -> 48        -0.00464
      29 -> 55        -0.00058
      29 -> 59        -0.00468
      29 -> 60         0.00476
      29 -> 65         0.00654
      29 -> 69         0.00249
      29 -> 71         0.00161
      29 -> 75         0.00461
      29 -> 78        -0.00072
      29 -> 80        -0.00341
      29 -> 82        -0.00780
      29 -> 87         0.00080
      29 -> 88         0.00360
      29 -> 90         0.00037
      29 -> 94         0.00204
      29 -> 95         0.00227
      29 -> 96        -0.00091
      29 -> 99         0.00279
      29 ->100        -0.00023
      29 ->103        -0.00035
      29 ->104        -0.00512
      29 ->106        -0.00243
      29 ->107         0.00346
      29 ->113        -0.00177
      29 ->115        -0.00131
      29 ->120        -0.00237
      29 ->127        -0.00030
      29 ->130         0.00040
      29 ->133        -0.00095
      29 ->135         0.00070
      29 ->137        -0.00193
      29 ->141         0.00057
      29 ->142         0.00029
      29 ->144         0.00036
      29 ->148        -0.00053
      29 ->155        -0.00012
      29 ->156         0.00025
      29 ->163        -0.00054
      29 ->168        -0.00013
      29 ->169        -0.00022
      29 ->179        -0.00013
      29 ->180        -0.00014
      29 ->183         0.00014
      29 ->186         0.00078
      29 ->189         0.00058
      29 ->196        -0.00024
      29 ->206         0.00031
      29 ->212         0.00020
      29 ->213         0.00017
      30 -> 42        -0.00762
[...]
      32 <-109         0.00018
      32 <-114         0.00038
      32 <-118         0.00022
      32 <-152         0.00028
      32 <-158         0.00045
      32 <-160         0.00011
      32 <-162         0.00026
      32 <-172        -0.00013
      32 <-190        -0.00010
      33 <- 41        -0.00025
      33 <- 43        -0.00047
      33 <- 44         0.00100
      33 <- 47         0.00011
      33 <- 49        -0.00030
      33 <- 53        -0.00072
      33 <- 56        -0.00038
      33 <- 61        -0.00104
      33 <- 62         0.00121
      33 <- 67         0.00072
      33 <- 70         0.00108
      33 <- 72        -0.00255
      33 <- 74        -0.00042
      33 <- 76        -0.00030
      33 <- 79        -0.00134
      33 <- 81        -0.00070
      33 <- 83         0.00020
      33 <- 86        -0.00072
      33 <- 89        -0.00088
      33 <- 91         0.00053
      33 <- 92        -0.00234
      33 <- 93        -0.00053
      33 <- 98         0.00045
      33 <-101         0.00099
      33 <-102        -0.00024
      33 <-105         0.00018
      33 <-108         0.00147
      33 <-112        -0.00049
      33 <-122         0.00012
      33 <-124        -0.00043
      33 <-128         0.00024
      33 <-131        -0.00044
      33 <-134        -0.00028
      33 <-143         0.00013
      33 <-145         0.00026
      33 <-149         0.00013
      33 <-154        -0.00018
      33 <-171        -0.00018
      33 <-177         0.00021
      34 <- 45         0.00037
      34 <- 48         0.00054
      34 <- 55         0.00082
      34 <- 59         0.00145
      34 <- 60        -0.00117
      34 <- 65        -0.00109
      34 <- 69        -0.00089
      34 <- 75        -0.00130
      34 <- 78         0.00089
      34 <- 80         0.00097
      34 <- 82         0.00156
      34 <- 87         0.00039
      34 <- 88        -0.00017
      34 <- 90         0.00056
      34 <- 94        -0.00155
      34 <- 96         0.00038
      34 <- 99         0.00162
      34 <-100        -0.00184
      34 <-103         0.00047
      34 <-106        -0.00057
      34 <-107        -0.00069
      34 <-113        -0.00055
      34 <-120        -0.00068
      34 <-127         0.00043
      34 <-135        -0.00012
      34 <-137         0.00013
      34 <-142         0.00039
      34 <-144        -0.00020
      34 <-155         0.00013
      34 <-174         0.00026
      35 <- 39         0.00195
      35 <- 46        -0.00603
      35 <- 50         0.00474
      35 <- 51        -0.00199
      35 <- 57        -0.00213
      35 <- 63        -0.00097
      35 <- 64         0.00381
      35 <- 66         0.00206
      35 <- 77         0.00115
      35 <- 85        -0.00011
      35 <-109         0.00053
      35 <-114        -0.00088
      35 <-118         0.00059
      35 <-121         0.00012
      35 <-123        -0.00010
      35 <-126        -0.00016
      35 <-138        -0.00022
      35 <-152        -0.00032
      35 <-158        -0.00015
      35 <-162        -0.00033
      35 <-164        -0.00021
      36 <- 40        -0.01059
      36 <- 52         0.00097
      36 <- 54         0.00089
      36 <- 58         0.00265
      36 <- 68        -0.00192
      36 <- 73        -0.00018
      36 <-111         0.00020
      36 <-116         0.00038
      36 <-125        -0.00018
      36 <-151        -0.00029
      36 <-157        -0.00037
      36 <-161        -0.00059
      36 <-165        -0.00013
      37 <- 40        -0.00402
      37 <- 52         0.00695
      37 <- 54         0.00253
      37 <- 58        -0.00456
      37 <- 68        -0.00465
      37 <- 73        -0.00258
      37 <-111        -0.00061
      37 <-116        -0.00032
      37 <-119        -0.00071
      37 <-157        -0.00069
      37 <-161         0.00019
      37 <-166        -0.00064
      38 <- 39        -0.01631
      38 <- 46        -0.00205
      38 <- 51         0.00082
      38 <- 57         0.00549
      38 <- 63         0.00050
      38 <- 64         0.00065
      38 <- 66        -0.00086
      38 <- 77         0.00010
      38 <- 85         0.00053
      38 <-109         0.00029
      38 <-114         0.00109
      38 <-118         0.00010
      38 <-121        -0.00010
      38 <-123        -0.00061
      38 <-152        -0.00031
      38 <-158        -0.00079
      38 <-160        -0.00026
      38 <-164        -0.00022
      38 <-172         0.00024
      38 <-190         0.00022
      38 <-191         0.00013
 SavETr:  write IOETrn=   770 NScale= 10 NData=  16 NLR=1 LETran=      96.
 Leave Link  914 at Thu Aug 01 11:49:39 2013, MaxMem=  196608000 cpu:     513.0
 (Enter d:\study\G09W\l601.exe)
 Copying SCF densities to generalized density rwf, IOpCl= 0 IROHF=0.

 **********************************************************************

            Population analysis using the SCF density.

 **********************************************************************

 Orbital symmetries:
       Occupied  (A1) (A1) (B2) (A1) (A1) (B2) (A1) (B2) (A1) (A1)
                 (B2) (A1) (A1) (A1) (B2) (A1) (B2) (A1) (B2) (A1)
                 (B2) (A1) (A1) (B2) (A1) (B1) (B2) (A1) (B2) (B2)
                 (A1) (B1) (A1) (B2) (B1) (A2) (A2) (B1)
       Virtual   (B1) (A2) (A1) (B2) (A1) (A1) (B2) (B1) (A1) (B2)
                 (A1) (B1) (B1) (A2) (A1) (A2) (B2) (A1) (B1) (A2)
                 (B2) (B2) (A1) (A1) (B1) (B1) (B2) (B1) (A1) (A2)
                 (B2) (A1) (B2) (A1) (A2) (A1) (B2) (A1) (B1) (B2)
                 (A1) (B2) (A1) (B2) (A1) (A1) (B1) (A1) (B2) (B2)
                 (A1) (B2) (A1) (A1) (A1) (B2) (B2) (B2) (A1) (A1)
                 (B2) (B2) (A1) (A1) (B2) (B2) (A1) (B2) (B2) (A1)
                 (B1) (A1) (A2) (A1) (B2) (B1) (B2) (A2) (A1) (B1)
                 (A2) (B2) (B1) (A1) (B1) (A1) (A2) (B1) (B2) (A1)
                 (A1) (B2) (A1) (B2) (B2) (A1) (B2) (A1) (B2) (B1)
                 (A1) (A1) (B2) (B2) (A1) (B2) (A1) (A1) (B2) (B2)
                 (A1) (A1) (A2) (B1) (A1) (A1) (B2) (B2) (A2) (B1)
                 (A1) (B1) (A2) (B1) (B2) (B1) (A2) (A2) (A1) (B2)
                 (B2) (A1) (A1) (B1) (A1) (B2) (A1) (A1) (A1) (A1)
                 (B2) (B2) (A1) (A1) (B2) (B1) (A2) (B2) (A1) (A2)
                 (B2) (B1) (B1) (A2) (A1) (B1) (A2) (B2) (A1) (A2)
                 (B1) (A1) (B2) (B2) (A2) (A1) (A1) (B2) (A1) (A1)
                 (B2) (B2) (A1) (B2) (B2) (A1) (B2) (A1) (A1) (A1)
                 (B2) (A1) (B2) (A1) (B2) (A1) (A1) (B2) (A1)
 The electronic state is 1-A1.
 Alpha  occ. eigenvalues --  -14.47315 -10.32715 -10.28725 -10.28722 -10.27996
 Alpha  occ. eigenvalues --  -10.27995 -10.27891 -10.27890 -10.27347 -10.25335
 Alpha  occ. eigenvalues --  -10.25289  -1.07955  -0.95507  -0.88866  -0.84515
 Alpha  occ. eigenvalues --   -0.81405  -0.80805  -0.70808  -0.70109  -0.64013
 Alpha  occ. eigenvalues --   -0.63983  -0.63173  -0.57698  -0.53547  -0.53404
 Alpha  occ. eigenvalues --   -0.50984  -0.50763  -0.49887  -0.48865  -0.45807
 Alpha  occ. eigenvalues --   -0.44742  -0.44070  -0.43385  -0.41803  -0.35038
 Alpha  occ. eigenvalues --   -0.32149  -0.27663  -0.27491
 Alpha virt. eigenvalues --    0.01007   0.02227   0.03005   0.04255   0.04711
 Alpha virt. eigenvalues --    0.05734   0.06101   0.06823   0.07597   0.07667
 Alpha virt. eigenvalues --    0.08094   0.09373   0.10005   0.10171   0.11033
 Alpha virt. eigenvalues --    0.11279   0.11532   0.11752   0.13787   0.14403
 Alpha virt. eigenvalues --    0.14612   0.15672   0.15875   0.16972   0.17416
 Alpha virt. eigenvalues --    0.17960   0.18816   0.19080   0.19188   0.19730
 Alpha virt. eigenvalues --    0.20165   0.20696   0.21981   0.22080   0.22985
 Alpha virt. eigenvalues --    0.22993   0.24523   0.24627   0.25269   0.25322
 Alpha virt. eigenvalues --    0.26311   0.26737   0.27653   0.27744   0.28753
 Alpha virt. eigenvalues --    0.29738   0.29739   0.30029   0.30425   0.32216
 Alpha virt. eigenvalues --    0.32450   0.33076   0.33297   0.33967   0.35625
 Alpha virt. eigenvalues --    0.36584   0.36954   0.38182   0.38515   0.38928
 Alpha virt. eigenvalues --    0.39150   0.41537   0.43012   0.45348   0.46365
 Alpha virt. eigenvalues --    0.51622   0.54014   0.59766   0.65040   0.67427
 Alpha virt. eigenvalues --    0.71543   0.72406   0.74409   0.75354   0.75876
 Alpha virt. eigenvalues --    0.77063   0.77968   0.78085   0.78348   0.79233
 Alpha virt. eigenvalues --    0.80317   0.80999   0.81315   0.81480   0.83052
 Alpha virt. eigenvalues --    0.83056   0.85686   0.87335   0.90041   0.90512
 Alpha virt. eigenvalues --    0.95344   0.98264   0.98354   0.99780   1.00367
 Alpha virt. eigenvalues --    1.02261   1.02614   1.04048   1.05373   1.05471
 Alpha virt. eigenvalues --    1.08670   1.09409   1.10504   1.15664   1.19214
 Alpha virt. eigenvalues --    1.20915   1.21184   1.23280   1.23685   1.24339
 Alpha virt. eigenvalues --    1.26657   1.28953   1.30519   1.32260   1.33961
 Alpha virt. eigenvalues --    1.35516   1.37084   1.39371   1.42564   1.44917
 Alpha virt. eigenvalues --    1.48538   1.49646   1.54132   1.54205   1.54803
 Alpha virt. eigenvalues --    1.54912   1.57074   1.61356   1.63297   1.69485
 Alpha virt. eigenvalues --    1.73804   1.74538   1.83397   1.90532   1.91464
 Alpha virt. eigenvalues --    1.92373   1.97035   1.99776   2.03720   2.06489
 Alpha virt. eigenvalues --    2.07239   2.08446   2.14873   2.17793   2.18122
 Alpha virt. eigenvalues --    2.19717   2.19750   2.23087   2.23774   2.24725
 Alpha virt. eigenvalues --    2.27718   2.32151   2.35207   2.36590   2.36733
 Alpha virt. eigenvalues --    2.37600   2.41109   2.44855   2.52421   2.61091
 Alpha virt. eigenvalues --    2.61176   2.62014   2.65810   2.70166   2.72961
 Alpha virt. eigenvalues --    2.75482   2.81093   2.82342   2.83656   2.86153
 Alpha virt. eigenvalues --    2.86364   2.94691   2.95416   3.02198   3.14150
 Alpha virt. eigenvalues --    3.22523   3.34636   3.50143   4.26959   4.31492
 Alpha virt. eigenvalues --    4.32929   4.37681   4.42061   4.44720   4.47211
 Alpha virt. eigenvalues --    4.52607   4.57759   4.60798   4.80700
          Condensed to atoms (all electrons):
              1          2          3          4          5          6
     1  C    6.625992  -0.916071   0.361349  -0.791991   0.411971   0.364121
     2  C   -0.916071   7.105797   0.071949   0.361349  -0.205202  -0.032092
     3  C    0.361349   0.071949   7.105797  -0.916071  -0.205202   0.029305
     4  C   -0.791991   0.361349  -0.916071   6.625992   0.411971  -0.014262
     5  N    0.411971  -0.205202  -0.205202   0.411971   6.856261  -0.067157
     6  H    0.364121  -0.032092   0.029305  -0.014262  -0.067157   0.515313
     7  H   -0.045266   0.374747  -0.073206   0.046038   0.004991  -0.001304
     8  H    0.046038  -0.073206   0.374747  -0.045266   0.004991  -0.000126
     9  H   -0.014262   0.029305  -0.032092   0.364121  -0.067157  -0.000076
    10  C   -0.147519  -0.031698  -0.031698  -0.147519  -0.011722   0.098205
    11  C   -0.599293  -0.008442   0.064835   0.819573  -0.022761   0.034452
    12  C    0.819573   0.064835  -0.008442  -0.599293  -0.022761  -0.096103
    13  C    0.183712   0.154603  -0.475758  -0.361726   0.001478  -0.003767
    14  H   -0.002364   0.002862  -0.002288   0.011071  -0.026914   0.000003
    15  C   -0.361726  -0.475758   0.154603   0.183712   0.001478  -0.018177
    16  H    0.011071  -0.002288   0.002862  -0.002364  -0.026914   0.001505
    17  C   -0.013218   0.003448   0.003448  -0.013218   0.006371  -0.001705
    18  H    0.000344  -0.000042  -0.000595  -0.001836  -0.000167   0.000000
    19  H   -0.001836  -0.000595  -0.000042   0.000344  -0.000167   0.000006
    20  H    0.000302   0.000043   0.000043   0.000302   0.000097   0.000000
              7          8          9         10         11         12
     1  C   -0.045266   0.046038  -0.014262  -0.147519  -0.599293   0.819573
     2  C    0.374747  -0.073206   0.029305  -0.031698  -0.008442   0.064835
     3  C   -0.073206   0.374747  -0.032092  -0.031698   0.064835  -0.008442
     4  C    0.046038  -0.045266   0.364121  -0.147519   0.819573  -0.599293
     5  N    0.004991   0.004991  -0.067157  -0.011722  -0.022761  -0.022761
     6  H   -0.001304  -0.000126  -0.000076   0.098205   0.034452  -0.096103
     7  H    0.503811  -0.001998  -0.000126   0.006438   0.007976  -0.013737
     8  H   -0.001998   0.503811  -0.001304   0.006438  -0.013737   0.007976
     9  H   -0.000126  -0.001304   0.515313   0.098205  -0.096103   0.034452
    10  C    0.006438   0.006438   0.098205   6.468228  -0.864613  -0.864613
    11  C    0.007976  -0.013737  -0.096103  -0.864613  15.589462  -5.204527
    12  C   -0.013737   0.007976   0.034452  -0.864613  -5.204527  15.589462
    13  C    0.000171  -0.000039  -0.018177   0.628552  -5.760341   1.860579
    14  H    0.000000   0.000001   0.001505   0.122119   0.109306   0.059249
    15  C   -0.000039   0.000171  -0.003767   0.628552   1.860579  -5.760341
    16  H    0.000001   0.000000   0.000003   0.122119   0.059249   0.109306
    17  C   -0.000046  -0.000046  -0.001705  -0.101372  -0.341239  -0.341239
    18  H    0.000000   0.000000   0.000006   0.003282  -0.047782  -0.025047
    19  H    0.000000   0.000000   0.000000   0.003282  -0.025047  -0.047782
    20  H    0.000000   0.000000   0.000000  -0.008887   0.048844   0.048844
             13         14         15         16         17         18
     1  C    0.183712  -0.002364  -0.361726   0.011071  -0.013218   0.000344
     2  C    0.154603   0.002862  -0.475758  -0.002288   0.003448  -0.000042
     3  C   -0.475758  -0.002288   0.154603   0.002862   0.003448  -0.000595
     4  C   -0.361726   0.011071   0.183712  -0.002364  -0.013218  -0.001836
     5  N    0.001478  -0.026914   0.001478  -0.026914   0.006371  -0.000167
     6  H   -0.003767   0.000003  -0.018177   0.001505  -0.001705   0.000000
     7  H    0.000171   0.000000  -0.000039   0.000001  -0.000046   0.000000
     8  H   -0.000039   0.000001   0.000171   0.000000  -0.000046   0.000000
     9  H   -0.018177   0.001505  -0.003767   0.000003  -0.001705   0.000006
    10  C    0.628552   0.122119   0.628552   0.122119  -0.101372   0.003282
    11  C   -5.760341   0.109306   1.860579   0.059249  -0.341239  -0.047782
    12  C    1.860579   0.059249  -5.760341   0.109306  -0.341239  -0.025047
    13  C   10.913475   0.025585  -1.494206  -0.012466   0.805268   0.355408
    14  H    0.025585   0.544251  -0.012466  -0.000132  -0.002451  -0.005175
    15  C   -1.494206  -0.012466  10.913475   0.025585   0.805268   0.019556
    16  H   -0.012466  -0.000132   0.025585   0.544251  -0.002451   0.000014
    17  C    0.805268  -0.002451   0.805268  -0.002451   5.086137  -0.002353
    18  H    0.355408  -0.005175   0.019556   0.000014  -0.002353   0.517121
    19  H    0.019556   0.000014   0.355408  -0.005175  -0.002353  -0.000155
    20  H   -0.052384  -0.000142  -0.052384  -0.000142   0.316112  -0.004076
             19         20
     1  C   -0.001836   0.000302
     2  C   -0.000595   0.000043
     3  C   -0.000042   0.000043
     4  C    0.000344   0.000302
     5  N   -0.000167   0.000097
     6  H    0.000006   0.000000
     7  H    0.000000   0.000000
     8  H    0.000000   0.000000
     9  H    0.000000   0.000000
    10  C    0.003282  -0.008887
    11  C   -0.025047   0.048844
    12  C   -0.047782   0.048844
    13  C    0.019556  -0.052384
    14  H    0.000014  -0.000142
    15  C    0.355408  -0.052384
    16  H   -0.005175  -0.000142
    17  C   -0.002353   0.316112
    18  H   -0.000155  -0.004076
    19  H    0.517121  -0.004076
    20  H   -0.004076   0.518562
 Mulliken atomic charges:
              1
     1  C    0.069074
     2  C   -0.423546
     3  C   -0.423546
     4  C    0.069074
     5  N   -0.043486
     6  H    0.191859
     7  H    0.191550
     8  H    0.191550
     9  H    0.191859
    10  C    0.024218
    11  C    0.389609
    12  C    0.389609
    13  C   -0.769522
    14  H    0.175966
    15  C   -0.769522
    16  H    0.175966
    17  C   -0.202655
    18  H    0.191499
    19  H    0.191499
    20  H    0.188945
 Sum of Mulliken atomic charges =   0.00000
 Mulliken charges with hydrogens summed into heavy atoms:
              1
     1  C    0.260933
     2  C   -0.231996
     3  C   -0.231996
     4  C    0.260933
     5  N   -0.043486
    10  C    0.024218
    11  C    0.565575
    12  C    0.565575
    13  C   -0.578023
    15  C   -0.578023
    17  C   -0.013710
 Sum of Mulliken charges with hydrogens summed into heavy atoms =   0.00000
 Electronic spatial extent (au):  <R**2>=           1861.5237
 Charge=              0.0000 electrons
 Dipole moment (field-independent basis, Debye):
    X=              0.0000    Y=              0.0000    Z=             -1.2695  Tot=              1.2695
 Quadrupole moment (field-independent basis, Debye-Ang):
   XX=            -72.4463   YY=            -56.6388   ZZ=            -60.8465
   XY=              0.0000   XZ=              0.0000   YZ=              0.0000
 Traceless Quadrupole moment (field-independent basis, Debye-Ang):
   XX=             -9.1358   YY=              6.6717   ZZ=              2.4640
   XY=              0.0000   XZ=              0.0000   YZ=              0.0000
 Octapole moment (field-independent basis, Debye-Ang**2):
  XXX=              0.0000  YYY=              0.0000  ZZZ=            -12.1055  XYY=              0.0000
  XXY=              0.0000  XXZ=             -1.5292  XZZ=              0.0000  YZZ=              0.0000
  YYZ=             -2.0668  XYZ=              0.0000
 Hexadecapole moment (field-independent basis, Debye-Ang**3):
 XXXX=            -92.0174 YYYY=           -451.9559 ZZZZ=          -1895.6806 XXXY=              0.0000
 XXXZ=              0.0000 YYYX=              0.0000 YYYZ=              0.0000 ZZZX=              0.0000
 ZZZY=              0.0000 XXYY=           -111.6561 XXZZ=           -413.6785 YYZZ=           -389.2792
 XXYZ=              0.0000 YYXZ=              0.0000 ZZXY=              0.0000
 N-N= 5.414632088444D+02 E-N=-2.103730123218D+03  KE= 4.367622882026D+02
 Symmetry A1   KE= 2.697103441702D+02
 Symmetry A2   KE= 4.531320310514D+00
 Symmetry B1   KE= 9.223522624797D+00
 Symmetry B2   KE= 1.532971010972D+02
 Leave Link  601 at Thu Aug 01 11:49:39 2013, MaxMem=  196608000 cpu:       0.0
 (Enter d:\study\G09W\l9999.exe)

 Test job not archived.
 1|1|UNPC-X500|SP|RTD-CAM-B3LYP-FC|6-31+G(d)|C10H9N1|SOBEREVA|01-Aug-20
 13|0||#p cam-b3lyp/6-31+g(d) td(nstates=5) IOp(9/40=4)||B3LYP/6-31G* o
 pted||0,1|C,0,0.,1.121629,1.825079|C,0,0.,0.7131,3.134574|C,0,0.,-0.71
 31,3.134574|C,0,0.,-1.121629,1.825079|N,0,0.,0.,1.006273|H,0,0.,2.1182
 14,1.415653|H,0,0.,1.365821,3.997077|H,0,0.,-1.365821,3.997077|H,0,0.,
 -2.118214,1.415653|C,0,0.,0.,-0.412874|C,0,0.,-1.206261,-1.130569|C,0,
 0.,1.206261,-1.130569|C,0,0.,-1.200418,-2.523874|H,0,0.,-2.157238,-0.6
 1186|C,0,0.,1.200418,-2.523874|H,0,0.,2.157238,-0.61186|C,0,0.,0.,-3.2
 33817|H,0,0.,-2.148963,-3.054142|H,0,0.,2.148963,-3.054142|H,0,0.,0.,-
 4.319755||Version=IA32W-G09RevA.02|State=1-A1|HF=-440.9804475|RMSD=7.9
 79e-009|PG=C02V [C2(H1C1C1N1),SGV(C8H8)]||@


 ALTHOUGH J.J. COULD DIAGNOSE THE FAULTS OF AN
 APPARATUS WITH UNCANNY ACCURACY, IT WAS JUST AS
 WELL NOT TO LET HIM HANDLE IT.
   -- GEORGE THOMPSON, ABOUT HIS FATHER
 Job cpu time:  0 days  0 hours  9 minutes 26.0 seconds.
 File lengths (MBytes):  RWF=    103 Int=      0 D2E=      0 Chk=     16 Scr=      1
 Normal termination of Gaussian 09 at Thu Aug 01 11:49:39 2013.
