Geometry was optimized for neutral state                                
SP        UB3LYP                                                      6-31G(d)            
Number of atoms                            I                9
Info1-9                                    I   N=           9
          17          16           0           0           0         110
           1          18        -502
Full Title                                 C   N=           4
Geometry was optimized for neutral state        
Route                                      C   N=           2
# b3lyp/6-31g(d)        
Charge                                     I               -1
Multiplicity                               I                2
Number of electrons                        I               25
Number of alpha electrons                  I               13
Number of beta electrons                   I               12
Number of basis functions                  I               57
Number of independent functions            I               57
Number of point charges in /Mol/           I                0
Number of translation vectors              I                0
Atomic numbers                             I   N=           9
           6           1           1           1           6           1
           6           1           1
Nuclear charges                            R   N=           9
  6.00000000E+00  1.00000000E+00  1.00000000E+00  1.00000000E+00  6.00000000E+00
  1.00000000E+00  6.00000000E+00  1.00000000E+00  1.00000000E+00
Current cartesian coordinates              R   N=          27
 -2.15902533E+00 -9.64521883E-01  0.00000000E+00 -3.99271540E+00 -8.59825387E-03
  0.00000000E+00 -2.09865236E+00 -2.19443123E+00  1.66767953E+00 -2.09865236E+00
 -2.19443123E+00 -1.66767953E+00  2.24359440E-17  9.07561758E-01  0.00000000E+00
 -5.12756397E-01  2.90262500E+00  0.00000000E+00  2.44429271E+00  2.95265928E-01
  0.00000000E+00  3.07592422E+00 -1.66320843E+00  0.00000000E+00  3.91525364E+00
  1.72820934E+00  0.00000000E+00
Number of symbols in /Mol/                 I                0
Force Field                                I                0
Atom Types                                 C   N=           9
                                                            
                                                
Int Atom Types                             I   N=           9
           0           0           0           0           0           0
           0           0           0
MM charges                                 R   N=           9
  0.00000000E+00  0.00000000E+00  0.00000000E+00  0.00000000E+00  0.00000000E+00
  0.00000000E+00  0.00000000E+00  0.00000000E+00  0.00000000E+00
Integer atomic weights                     I   N=           9
          12           1           1           1          12           1
          12           1           1
Real atomic weights                        R   N=           9
  1.20000000E+01  1.00782504E+00  1.00782504E+00  1.00782504E+00  1.20000000E+01
  1.00782504E+00  1.20000000E+01  1.00782504E+00  1.00782504E+00
Atom fragment info                         I   N=           9
           0           0           0           0           0           0
           0           0           0
Atom residue num                           I   N=           9
           0           0           0           0           0           0
           0           0           0
Nuclear spins                              I   N=           9
           0           1           1           1           0           1
           0           1           1
Nuclear ZEff                               R   N=           9
 -3.60000000E+00 -1.00000000E+00 -1.00000000E+00 -1.00000000E+00 -3.60000000E+00
 -1.00000000E+00 -3.60000000E+00 -1.00000000E+00 -1.00000000E+00
Nuclear ZNuc                               R   N=           9
  6.00000000E+00  1.00000000E+00  1.00000000E+00  1.00000000E+00  6.00000000E+00
  1.00000000E+00  6.00000000E+00  1.00000000E+00  1.00000000E+00
Nuclear QMom                               R   N=           9
  0.00000000E+00  0.00000000E+00  0.00000000E+00  0.00000000E+00  0.00000000E+00
  0.00000000E+00  0.00000000E+00  0.00000000E+00  0.00000000E+00
Nuclear GFac                               R   N=           9
  0.00000000E+00  2.79284600E+00  2.79284600E+00  2.79284600E+00  0.00000000E+00
  2.79284600E+00  0.00000000E+00  2.79284600E+00  2.79284600E+00
MicOpt                                     I   N=           9
          -1          -1          -1          -1          -1          -1
          -1          -1          -1
Number of residues                         I                0
Number of secondary structures             I                0
SymInf integers                            I   N=          26
           2           2           1           1           1           1
           1          -1           0           0           0           0
           0           0           0           0           0           0
           0           0           0           0           0           0
           0           0
RotTr to input orientation                 R   N=          12
  1.00000000E+00  2.60275142E-07  0.00000000E+00 -2.60275142E-07  1.00000000E+00
  0.00000000E+00  0.00000000E+00  0.00000000E+00  1.00000000E+00  2.36215765E-07
  1.11022302E-16  0.00000000E+00
Number of contracted shells                I               24
Number of primitive shells                 I               57
Pure/Cartesian d shells                    I                1
Pure/Cartesian f shells                    I                0
Highest angular momentum                   I                2
Largest degree of contraction              I                6
Shell types                                I   N=          24
           0          -1          -1           2           0           0
           0           0           0           0           0          -1
          -1           2           0           0           0          -1
          -1           2           0           0           0           0
Number of primitives per shell             I   N=          24
           6           3           1           1           3           1
           3           1           3           1           6           3
           1           1           3           1           6           3
           1           1           3           1           3           1
Shell to atom map                          I   N=          24
           1           1           1           1           2           2
           3           3           4           4           5           5
           5           5           6           6           7           7
           7           7           8           8           9           9
Primitive exponents                        R   N=          57
  3.04752488E+03  4.57369518E+02  1.03948685E+02  2.92101553E+01  9.28666296E+00
  3.16392696E+00  7.86827235E+00  1.88128854E+00  5.44249258E-01  1.68714478E-01
  8.00000000E-01  1.87311370E+01  2.82539436E+00  6.40121692E-01  1.61277759E-01
  1.87311370E+01  2.82539436E+00  6.40121692E-01  1.61277759E-01  1.87311370E+01
  2.82539436E+00  6.40121692E-01  1.61277759E-01  3.04752488E+03  4.57369518E+02
  1.03948685E+02  2.92101553E+01  9.28666296E+00  3.16392696E+00  7.86827235E+00
  1.88128854E+00  5.44249258E-01  1.68714478E-01  8.00000000E-01  1.87311370E+01
  2.82539436E+00  6.40121692E-01  1.61277759E-01  3.04752488E+03  4.57369518E+02
  1.03948685E+02  2.92101553E+01  9.28666296E+00  3.16392696E+00  7.86827235E+00
  1.88128854E+00  5.44249258E-01  1.68714478E-01  8.00000000E-01  1.87311370E+01
  2.82539436E+00  6.40121692E-01  1.61277759E-01  1.87311370E+01  2.82539436E+00
  6.40121692E-01  1.61277759E-01
Contraction coefficients                   R   N=          57
  1.83473713E-03  1.40373228E-02  6.88426223E-02  2.32184443E-01  4.67941348E-01
  3.62311985E-01 -1.19332420E-01 -1.60854152E-01  1.14345644E+00  1.00000000E+00
  1.00000000E+00  3.34946043E-02  2.34726953E-01  8.13757326E-01  1.00000000E+00
  3.34946043E-02  2.34726953E-01  8.13757326E-01  1.00000000E+00  3.34946043E-02
  2.34726953E-01  8.13757326E-01  1.00000000E+00  1.83473713E-03  1.40373228E-02
  6.88426223E-02  2.32184443E-01  4.67941348E-01  3.62311985E-01 -1.19332420E-01
 -1.60854152E-01  1.14345644E+00  1.00000000E+00  1.00000000E+00  3.34946043E-02
  2.34726953E-01  8.13757326E-01  1.00000000E+00  1.83473713E-03  1.40373228E-02
  6.88426223E-02  2.32184443E-01  4.67941348E-01  3.62311985E-01 -1.19332420E-01
 -1.60854152E-01  1.14345644E+00  1.00000000E+00  1.00000000E+00  3.34946043E-02
  2.34726953E-01  8.13757326E-01  1.00000000E+00  3.34946043E-02  2.34726953E-01
  8.13757326E-01  1.00000000E+00
P(S=P) Contraction coefficients            R   N=          57
  0.00000000E+00  0.00000000E+00  0.00000000E+00  0.00000000E+00  0.00000000E+00
  0.00000000E+00  6.89990666E-02  3.16423961E-01  7.44308291E-01  1.00000000E+00
  0.00000000E+00  0.00000000E+00  0.00000000E+00  0.00000000E+00  0.00000000E+00
  0.00000000E+00  0.00000000E+00  0.00000000E+00  0.00000000E+00  0.00000000E+00
  0.00000000E+00  0.00000000E+00  0.00000000E+00  0.00000000E+00  0.00000000E+00
  0.00000000E+00  0.00000000E+00  0.00000000E+00  0.00000000E+00  6.89990666E-02
  3.16423961E-01  7.44308291E-01  1.00000000E+00  0.00000000E+00  0.00000000E+00
  0.00000000E+00  0.00000000E+00  0.00000000E+00  0.00000000E+00  0.00000000E+00
  0.00000000E+00  0.00000000E+00  0.00000000E+00  0.00000000E+00  6.89990666E-02
  3.16423961E-01  7.44308291E-01  1.00000000E+00  0.00000000E+00  0.00000000E+00
  0.00000000E+00  0.00000000E+00  0.00000000E+00  0.00000000E+00  0.00000000E+00
  0.00000000E+00  0.00000000E+00
Coordinates of each shell                  R   N=          72
 -2.15902581E+00 -9.64521321E-01  0.00000000E+00 -2.15902581E+00 -9.64521321E-01
  0.00000000E+00 -2.15902581E+00 -9.64521321E-01  0.00000000E+00 -2.15902581E+00
 -9.64521321E-01  0.00000000E+00 -3.99271564E+00 -8.59721466E-03  0.00000000E+00
 -3.99271564E+00 -8.59721466E-03  0.00000000E+00 -2.09865316E+00 -2.19443069E+00
  1.66767953E+00 -2.09865316E+00 -2.19443069E+00  1.66767953E+00 -2.09865316E+00
 -2.19443069E+00 -1.66767953E+00 -2.09865316E+00 -2.19443069E+00 -1.66767953E+00
  0.00000000E+00  9.07561758E-01  0.00000000E+00  0.00000000E+00  9.07561758E-01
  0.00000000E+00  0.00000000E+00  9.07561758E-01  0.00000000E+00  0.00000000E+00
  9.07561758E-01  0.00000000E+00 -5.12755878E-01  2.90262513E+00  0.00000000E+00
 -5.12755878E-01  2.90262513E+00  0.00000000E+00  2.44429255E+00  2.95265291E-01
  0.00000000E+00  2.44429255E+00  2.95265291E-01  0.00000000E+00  2.44429255E+00
  2.95265291E-01  0.00000000E+00  2.44429255E+00  2.95265291E-01  0.00000000E+00
  3.07592355E+00 -1.66320923E+00  0.00000000E+00  3.07592355E+00 -1.66320923E+00
  0.00000000E+00  3.91525385E+00  1.72820832E+00  0.00000000E+00  3.91525385E+00
  1.72820832E+00  0.00000000E+00
Num ILSW                                   I              100
ILSW                                       I   N=         100
           1           1           0           0           2           0
           0           0           0           0         402          -1
           5           0           0           0           0           0
           0           0           1           0           0           0
           1           0           0           0           0           0
           0           0      100000           0          -1           0
           0           0           0           0           0           0
           0           0           0           1           0           0
           0 -2000000000           1           0           0           0
           0           0           4          52           0           0
           0           0           5           0           0           0
           0           0           0           0           0           1
           0           0           0           0           0           0
           0           0           0           0           0           0
           0           0           0           0           0           0
           0           0           0           0           0           0
           0           0           0           0
Num RLSW                                   I               52
RLSW                                       R   N=          52
  8.00000000E-01  7.20000000E-01  1.00000000E+00  8.10000000E-01  2.00000000E-01
  0.00000000E+00  0.00000000E+00  1.00000000E+00  0.00000000E+00  0.00000000E+00
  0.00000000E+00  0.00000000E+00  1.00000000E+00  0.00000000E+00  0.00000000E+00
  0.00000000E+00  0.00000000E+00  1.00000000E+00  0.00000000E+00  0.00000000E+00
  0.00000000E+00  0.00000000E+00  1.00000000E+00  0.00000000E+00  0.00000000E+00
  0.00000000E+00  0.00000000E+00  1.00000000E+00  0.00000000E+00  0.00000000E+00
  0.00000000E+00  0.00000000E+00  1.00000000E+00  0.00000000E+00  0.00000000E+00
  0.00000000E+00  0.00000000E+00  0.00000000E+00  1.00000000E+00  1.00000000E+00
  0.00000000E+00  1.00000000E+00  0.00000000E+00  0.00000000E+00  0.00000000E+00
  0.00000000E+00  0.00000000E+00  0.00000000E+00  0.00000000E+00  0.00000000E+00
  0.00000000E+00  0.00000000E+00
MxBond                                     I                4
NBond                                      I   N=           9
           4           1           1           1           3           1
           3           1           1
IBond                                      I   N=          36
           2           3           4           5           1           0
           0           0           1           0           0           0
           1           0           0           0           1           6
           7           0           5           0           0           0
           5           8           9           0           7           0
           0           0           7           0           0           0
RBond                                      R   N=          36
  1.00000000E+00  1.00000000E+00  1.00000000E+00  1.00000000E+00  1.00000000E+00
  0.00000000E+00  0.00000000E+00  0.00000000E+00  1.00000000E+00  0.00000000E+00
  0.00000000E+00  0.00000000E+00  1.00000000E+00  0.00000000E+00  0.00000000E+00
  0.00000000E+00  1.00000000E+00  1.00000000E+00  2.00000000E+00  0.00000000E+00
  1.00000000E+00  0.00000000E+00  0.00000000E+00  0.00000000E+00  2.00000000E+00
  1.00000000E+00  1.00000000E+00  0.00000000E+00  1.00000000E+00  0.00000000E+00
  0.00000000E+00  0.00000000E+00  1.00000000E+00  0.00000000E+00  0.00000000E+00
  0.00000000E+00
Virial Ratio                               R      2.006549406652133E+00
SCF Energy                                 R     -1.177893856836431E+02
Total Energy                               R     -1.177893856836431E+02
S**2                                       R      7.526114845395480E-01
S**2 after annihilation                    R      7.500057394701245E-01
RMS Density                                R      8.983171871391669E-09
Job Status                                 I                1
Nuclear derivative order                   I                0
External E-field                           R   N=          35
  0.00000000E+00  0.00000000E+00  0.00000000E+00  0.00000000E+00  0.00000000E+00
  0.00000000E+00  0.00000000E+00  0.00000000E+00  0.00000000E+00  0.00000000E+00
  0.00000000E+00  0.00000000E+00  0.00000000E+00  0.00000000E+00  0.00000000E+00
  0.00000000E+00  0.00000000E+00  0.00000000E+00  0.00000000E+00  0.00000000E+00
  0.00000000E+00  0.00000000E+00  0.00000000E+00  0.00000000E+00  0.00000000E+00
  0.00000000E+00  0.00000000E+00  0.00000000E+00  0.00000000E+00  0.00000000E+00
  0.00000000E+00  0.00000000E+00  0.00000000E+00  0.00000000E+00  0.00000000E+00
IOpCl                                      I                1
IROHF                                      I                0
Alpha Orbital Energies                     R   N=          57
 -9.95737511E+00 -9.88358123E+00 -9.87490269E+00 -5.18664699E-01 -4.30208055E-01
 -2.93652932E-01 -2.09561307E-01 -1.85324217E-01 -1.65580156E-01 -1.17902825E-01
 -8.48063063E-02  5.85282202E-03  2.08028902E-01  3.08372395E-01  3.35849550E-01
  3.70651704E-01  3.89020848E-01  3.95845327E-01  4.16854870E-01  5.09800926E-01
  5.88317970E-01  7.37996384E-01  7.61513997E-01  7.87077103E-01  8.28160505E-01
  8.46964041E-01  9.17894011E-01  9.32614222E-01  9.97476365E-01  1.03139229E+00
  1.08273125E+00  1.10722639E+00  1.12273354E+00  1.15209523E+00  1.16070284E+00
  1.19667247E+00  1.36848794E+00  1.47421013E+00  1.52927638E+00  1.68451684E+00
  1.76353304E+00  1.97856401E+00  2.04648531E+00  2.13846570E+00  2.20927381E+00
  2.36499125E+00  2.39169980E+00  2.44452671E+00  2.45456837E+00  2.52847325E+00
  2.75096201E+00  2.77019379E+00  3.02749347E+00  3.12905875E+00  4.37672326E+00
  4.44906357E+00  4.66028032E+00
Beta Orbital Energies                      R   N=          57
 -9.95795875E+00 -9.87739867E+00 -9.86928223E+00 -5.09165820E-01 -4.21156689E-01
 -2.77874082E-01 -2.06491783E-01 -1.77010014E-01 -1.60790462E-01 -1.13829487E-01
 -8.08274872E-02  4.97655787E-02  3.06136567E-01  3.11009433E-01  3.41263243E-01
  3.76643124E-01  3.97622824E-01  4.08107917E-01  4.23268884E-01  5.14268548E-01
  5.94161692E-01  7.41436078E-01  7.63763878E-01  8.02375580E-01  8.33490662E-01
  8.66929458E-01  9.45622854E-01  9.51537958E-01  1.00184138E+00  1.04215820E+00
  1.09052140E+00  1.10947148E+00  1.12682888E+00  1.15771151E+00  1.16519369E+00
  1.20504260E+00  1.38364670E+00  1.47988120E+00  1.53523027E+00  1.70049373E+00
  1.79194342E+00  2.00429764E+00  2.04789574E+00  2.14612186E+00  2.22744742E+00
  2.38041375E+00  2.40434507E+00  2.45657733E+00  2.46947513E+00  2.53401865E+00
  2.77863502E+00  2.78671108E+00  3.03626411E+00  3.13550425E+00  4.38643119E+00
  4.45882063E+00  4.67260942E+00
Alpha MO coefficients                      R   N=        3249
  9.92966653E-01  4.96312945E-02 -3.67832414E-04 -2.57898167E-04  0.00000000E+00
 -1.74221746E-02 -5.64742255E-04 -5.64650951E-04  0.00000000E+00 -9.07403688E-03
 -9.07898968E-03 -8.99839854E-03 -1.02517122E-04  0.00000000E+00  0.00000000E+00
 -7.95080761E-05  2.80531427E-03 -6.88135431E-05  2.77429212E-03 -6.88135431E-05
  2.77429212E-03  1.53893506E-03 -1.71845357E-04  9.80357665E-05  1.20402573E-04
  0.00000000E+00  3.79547749E-03 -2.29988822E-03 -1.60621155E-03  0.00000000E+00
 -2.91551262E-04 -1.81825742E-04 -1.66697255E-04 -1.10738753E-04  0.00000000E+00
  0.00000000E+00 -1.15756730E-04  5.46139234E-05 -4.28794289E-05 -1.37946288E-04
  7.74135952E-05  4.49001341E-05  0.00000000E+00  4.67668028E-04 -5.46341634E-04
  3.77640563E-04  0.00000000E+00  6.59030153E-05  3.70544485E-05 -9.05173009E-05
 -4.41705228E-05  0.00000000E+00  0.00000000E+00 -4.65846003E-05  3.14403598E-04
 -3.38444101E-05  2.26447877E-04 -1.75967650E-03 -2.68209004E-04 -1.40263236E-04
 -2.34289608E-04  0.00000000E+00  3.64280306E-03  1.40087059E-03  1.34322086E-03
  0.00000000E+00 -2.42585763E-04 -3.22858127E-04 -2.81469957E-05 -2.01417171E-04
  0.00000000E+00  0.00000000E+00 -1.01914533E-04 -1.38138912E-04 -1.75155615E-04
  3.14492532E-04 -1.75155615E-04  3.14492532E-04  9.91553774E-01  4.99926289E-02
 -1.26504765E-04 -6.84435631E-05  0.00000000E+00 -1.45982955E-02 -1.72256311E-04
  1.47116773E-03  0.00000000E+00 -9.42147860E-03 -9.65522258E-03 -9.55728032E-03
 -7.67329789E-05  0.00000000E+00  0.00000000E+00 -3.27227944E-04  1.89842246E-03
  4.64626594E-02  1.79357554E-03  3.50575410E-04 -6.42803337E-05  0.00000000E+00
  4.32179028E-03 -2.06545188E-03 -2.29634103E-04  0.00000000E+00 -6.93637178E-04
 -6.65657812E-04 -6.13069115E-04  5.54056707E-05  0.00000000E+00  0.00000000E+00
 -1.45216600E-04 -2.75670201E-04 -4.44388636E-05  2.98535995E-04  9.75187783E-05
 -8.75044877E-05 -5.80290269E-05  2.75204359E-06  0.00000000E+00 -1.36973841E-04
  1.27709206E-04  7.85262840E-05  0.00000000E+00  5.70999872E-05  3.54430989E-05
 -3.46650244E-05  4.01093293E-05  0.00000000E+00  0.00000000E+00  9.40653548E-06
  1.92836794E-04 -1.90770206E-05  5.35117671E-05 -1.90770206E-05  5.35117671E-05
 -4.69433627E-02 -2.87736315E-03 -3.63166375E-04  1.13147763E-04  0.00000000E+00
  5.17654021E-03  2.16726827E-03 -5.00547667E-04  0.00000000E+00  2.03551867E-04
  2.44039928E-04  2.96027391E-04 -9.41374785E-06  0.00000000E+00  0.00000000E+00
 -4.96391064E-05 -6.70321435E-05  9.91512947E-01  4.99288233E-02  8.92033072E-05
 -4.55429762E-06  0.00000000E+00 -1.35196460E-02  1.11673330E-03 -2.83256559E-04
  0.00000000E+00 -9.52958238E-03 -9.71523387E-03 -9.75684432E-03 -5.72994190E-05
  0.00000000E+00  0.00000000E+00 -3.17664487E-04  2.18583080E-03 -3.29947270E-04
  2.19974353E-03 -1.49220390E-01  2.85311842E-01  2.35814834E-02  1.97766334E-02
  0.00000000E+00  2.38332846E-01  2.16518346E-03 -6.09419900E-03  0.00000000E+00
  1.86391920E-03 -3.84655422E-04 -1.84818946E-03  1.60966563E-03  0.00000000E+00
  0.00000000E+00  9.42797016E-02  3.28800931E-02  9.11515618E-02  2.63656144E-02
  9.11515618E-02  2.63656144E-02 -1.33450181E-01  2.51584534E-01 -5.35714632E-03
 -4.61184458E-02  0.00000000E+00  1.70132968E-01 -1.91370671E-02  3.00803039E-03
  0.00000000E+00  3.30025721E-03  1.41732409E-03 -1.19608976E-02  3.64616887E-03
  0.00000000E+00  0.00000000E+00  6.67853605E-02  1.70470441E-02 -8.71054724E-02
  1.62448967E-01 -6.67567953E-02  8.32716590E-03  0.00000000E+00  1.27129071E-01
 -9.73838640E-03  8.25369407E-04  0.00000000E+00  5.53889836E-03 -9.24702789E-04
 -8.93760567E-03 -1.07042448E-03  0.00000000E+00  0.00000000E+00  4.40330931E-02
  1.51213926E-02  3.95467683E-02  1.20685879E-02  1.19567384E-01 -2.38921890E-01
  7.17609604E-02  3.92180660E-02  0.00000000E+00 -1.96492388E-01  4.36100349E-02
  2.05598560E-02  0.00000000E+00  4.40393685E-03  9.80207495E-04 -2.61142812E-03
  7.91146165E-03  0.00000000E+00  0.00000000E+00 -1.08470177E-01 -4.66771783E-02
 -9.59799600E-02 -4.04927450E-02 -9.59799600E-02 -4.04927450E-02 -7.72605333E-02
  1.51745893E-01  1.57133212E-01  2.82557575E-02  0.00000000E+00  9.84865484E-02
  3.26579505E-02  2.26565289E-02  0.00000000E+00  1.18637543E-03 -4.49369137E-03
 -7.20916455E-03 -1.04922758E-02  0.00000000E+00  0.00000000E+00  4.86907733E-02
  1.69801914E-02 -1.49044033E-01  2.81116974E-01 -4.08563375E-02  2.56947921E-02
  0.00000000E+00  2.31884956E-01  6.28369451E-03 -3.46828341E-03  0.00000000E+00
  1.78809335E-03  2.10569285E-03 -1.36830965E-02 -8.75145126E-04  0.00000000E+00
  0.00000000E+00  8.81934649E-02  3.10401784E-02  9.94086201E-02  4.41114298E-02
  3.11320906E-02 -6.65075343E-02  9.00969211E-02  1.61700466E-01  0.00000000E+00
 -5.02471625E-02  4.37438992E-02  6.99451977E-02  0.00000000E+00  3.86870694E-03
  3.53035312E-03 -7.27333166E-03  8.99934728E-03  0.00000000E+00  0.00000000E+00
 -3.09268356E-02 -1.83980959E-02 -7.86399960E-02 -5.77431265E-02 -7.86399960E-02
 -5.77431265E-02 -1.22549845E-01  2.43196320E-01 -9.94050966E-02  1.12037321E-01
  0.00000000E+00  1.96981938E-01 -4.56283140E-02  4.48005606E-02  0.00000000E+00
 -1.29038271E-02  5.51604065E-03 -7.66239705E-03 -2.03752978E-03  0.00000000E+00
  0.00000000E+00  1.70902893E-01  1.15882075E-01  9.65125736E-02 -1.86917431E-01
 -1.58683419E-01  7.55164851E-02  0.00000000E+00 -1.64752949E-01 -6.54803919E-02
  2.51021981E-02  0.00000000E+00  9.08723039E-03 -9.27188870E-03  6.29190529E-03
 -7.15923345E-03  0.00000000E+00  0.00000000E+00 -1.42969225E-01 -1.00897201E-01
 -1.14720571E-01 -7.61599716E-02 -1.49303311E-03  2.97992313E-05  2.93952672E-01
 -1.42479846E-01  0.00000000E+00  3.55871764E-02  1.41884956E-01 -5.83900033E-02
  0.00000000E+00 -9.50497784E-03  2.70765475E-04  7.28114687E-03  1.27420678E-02
  0.00000000E+00  0.00000000E+00 -2.10131745E-01 -2.03768761E-01  5.94607645E-02
  5.49461815E-02  5.94607645E-02  5.49461815E-02 -3.04708685E-02  6.64017321E-02
  4.63656748E-02 -2.15784229E-01  0.00000000E+00  2.87000782E-02 -2.46618469E-03
 -2.98374464E-02  0.00000000E+00 -7.71505156E-03 -9.78414036E-04 -1.11988833E-03
  8.90268626E-04  0.00000000E+00  0.00000000E+00 -9.70587179E-02 -1.21762538E-01
  1.72026587E-02 -3.62686317E-02 -1.84685646E-01 -1.40955241E-01  0.00000000E+00
 -9.99645615E-03 -8.18182518E-02 -5.21816006E-02  0.00000000E+00  3.61153653E-03
 -5.42500221E-03  4.99662082E-05 -4.98216285E-03  0.00000000E+00  0.00000000E+00
  2.53394036E-02  2.86116457E-02 -1.49953486E-01 -1.36242676E-01  0.00000000E+00
  0.00000000E+00  0.00000000E+00  0.00000000E+00  4.23877877E-01  0.00000000E+00
  0.00000000E+00  0.00000000E+00  1.77976831E-01  0.00000000E+00  0.00000000E+00
  0.00000000E+00  0.00000000E+00 -5.15726874E-04 -2.28914117E-02  0.00000000E+00
  0.00000000E+00  2.24674952E-01  2.27863850E-01 -2.24674952E-01 -2.27863850E-01
  0.00000000E+00  0.00000000E+00  0.00000000E+00  0.00000000E+00  1.23028619E-01
  0.00000000E+00  0.00000000E+00  0.00000000E+00  5.68475012E-02  0.00000000E+00
  0.00000000E+00  0.00000000E+00  0.00000000E+00 -6.92301348E-03 -6.33044618E-03
  0.00000000E+00  0.00000000E+00  0.00000000E+00  0.00000000E+00  0.00000000E+00
  0.00000000E+00  4.43665991E-02  0.00000000E+00  0.00000000E+00  0.00000000E+00
  2.34292585E-02  0.00000000E+00  0.00000000E+00  0.00000000E+00  0.00000000E+00
 -3.32699602E-03 -2.46707481E-04  0.00000000E+00  0.00000000E+00  0.00000000E+00
  0.00000000E+00 -4.96177359E-03  9.89360285E-03 -3.64713280E-04  3.12857376E-01
  0.00000000E+00  2.41029627E-02  3.05942384E-02  1.43678946E-01  0.00000000E+00
  1.46628616E-02 -5.55879624E-03 -1.40444693E-02 -2.23432671E-03  0.00000000E+00
  0.00000000E+00  1.10415787E-01  1.31507942E-01 -1.21038691E-01 -1.23014943E-01
 -1.21038691E-01 -1.23014943E-01  1.83950364E-04  6.51446858E-04 -1.72470346E-01
 -1.49420546E-01  0.00000000E+00 -7.34395172E-05 -5.80452506E-02 -5.09553929E-02
  0.00000000E+00  2.53260120E-03 -4.34265544E-03  3.27591507E-04 -2.84461364E-03
  0.00000000E+00  0.00000000E+00 -6.14640655E-02 -6.39160221E-02 -4.50386468E-03
  8.70654171E-03  5.06849394E-02 -2.88938932E-01  0.00000000E+00  2.36062926E-02
  2.81003719E-02 -9.76469763E-02  0.00000000E+00 -5.05333253E-03  7.98071161E-03
  3.03064767E-04 -5.91833810E-03  0.00000000E+00  0.00000000E+00  1.84410888E-01
  1.81489547E-01 -9.72827584E-02 -1.12376451E-01 -1.72635970E-02  3.79803083E-02
  2.63263924E-01 -1.49873891E-02  0.00000000E+00  7.86698575E-02  1.16379015E-01
  3.45612947E-02  0.00000000E+00 -1.94011293E-02  9.90708269E-03  4.09895325E-03
  1.02183269E-02  0.00000000E+00  0.00000000E+00 -1.71901220E-01 -2.22141054E-01
  3.76041602E-02  4.91580353E-02  3.76041602E-02  4.91580353E-02  1.35295244E-02
 -2.89082138E-02 -3.50486940E-01  8.34360566E-02  0.00000000E+00 -1.68752872E-02
 -9.40614354E-02  3.10199727E-02  0.00000000E+00 -9.45893817E-03  1.50355938E-02
  2.91744912E-03  7.41653554E-03  0.00000000E+00  0.00000000E+00  1.05916361E-01
  1.32148170E-01  3.19444111E-02 -6.35754320E-02  3.52261583E-01 -1.65153393E-02
  0.00000000E+00 -1.10745200E-01  1.34583558E-01 -2.17207380E-02  0.00000000E+00
 -6.95538032E-04  1.20408481E-02  3.78518300E-03  8.33490223E-03  0.00000000E+00
  0.00000000E+00  5.54605801E-02  7.57744992E-02  1.38472576E-01  1.81392181E-01
  3.41483744E-02 -6.29928569E-02 -1.51186510E-01 -2.08891439E-01  0.00000000E+00
 -2.24433924E-01 -1.12047383E-01 -1.33764951E-01  0.00000000E+00 -7.40458107E-03
  8.39965124E-03  7.70402216E-03 -3.67504310E-03  0.00000000E+00  0.00000000E+00
 -1.12514390E-02  1.04397912E-02  6.09123654E-02  1.02962711E-01  6.09123654E-02
  1.02962711E-01  6.32174086E-03 -1.94185510E-02  3.61108192E-02  2.93371880E-01
  0.00000000E+00  1.17732611E-03 -3.11572565E-02  3.18668728E-02  0.00000000E+00
 -1.16576995E-02  1.87386402E-02 -1.11721513E-04 -1.80472395E-02  0.00000000E+00
  0.00000000E+00  2.11210235E-01  3.00601274E-01  7.55694237E-03 -1.57604081E-02
 -1.83255126E-02 -2.60791012E-01  0.00000000E+00 -1.63498193E-02  1.51664918E-03
 -2.82861675E-02  0.00000000E+00 -1.08601464E-02  1.26473769E-02  7.71691412E-04
 -2.25271050E-02  0.00000000E+00  0.00000000E+00  1.87733107E-01  2.80653669E-01
 -1.67667180E-01 -2.36277853E-01  0.00000000E+00  0.00000000E+00  0.00000000E+00
  0.00000000E+00 -8.99758088E-02  0.00000000E+00  0.00000000E+00  0.00000000E+00
 -1.61449826E-02  0.00000000E+00  0.00000000E+00  0.00000000E+00  0.00000000E+00
  1.20958591E-02  1.78116282E-02  0.00000000E+00  0.00000000E+00 -8.69666364E-02
 -1.40239928E-01  8.69666364E-02  1.40239928E-01  0.00000000E+00  0.00000000E+00
  0.00000000E+00  0.00000000E+00  3.73474089E-01  0.00000000E+00  0.00000000E+00
  0.00000000E+00  2.69999895E-01  0.00000000E+00  0.00000000E+00  0.00000000E+00
  0.00000000E+00  1.07209798E-02  1.00929836E-03  0.00000000E+00  0.00000000E+00
  0.00000000E+00  0.00000000E+00  0.00000000E+00  0.00000000E+00  3.94924195E-01
  0.00000000E+00  0.00000000E+00  0.00000000E+00  3.14993553E-01  0.00000000E+00
  0.00000000E+00  0.00000000E+00  0.00000000E+00 -7.52069989E-03  2.60754748E-03
  0.00000000E+00  0.00000000E+00  0.00000000E+00  0.00000000E+00  0.00000000E+00
  0.00000000E+00  0.00000000E+00  0.00000000E+00 -6.93496769E-02  0.00000000E+00
  0.00000000E+00  0.00000000E+00 -2.96341520E-01  0.00000000E+00  0.00000000E+00
  0.00000000E+00  0.00000000E+00 -1.15421864E-02 -2.39831540E-02  0.00000000E+00
  0.00000000E+00  8.19868929E-02  4.70798823E-01 -8.19868929E-02 -4.70798823E-01
  0.00000000E+00  0.00000000E+00  0.00000000E+00  0.00000000E+00 -3.95478012E-01
  0.00000000E+00  0.00000000E+00  0.00000000E+00 -5.49259349E-01  0.00000000E+00
  0.00000000E+00  0.00000000E+00  0.00000000E+00  2.36231250E-02 -8.54173066E-03
  0.00000000E+00  0.00000000E+00  0.00000000E+00  0.00000000E+00  0.00000000E+00
  0.00000000E+00  3.70826260E-01  0.00000000E+00  0.00000000E+00  0.00000000E+00
  5.98329242E-01  0.00000000E+00  0.00000000E+00  0.00000000E+00  0.00000000E+00