Geometry was optimized for neutral state                                
SP        UB3LYP                                                      6-31G(d)            
Number of atoms                            I                9
Info1-9                                    I   N=           9
          17          16           0           0           0         110
           1          18        -502
Full Title                                 C   N=           4
Geometry was optimized for neutral state        
Route                                      C   N=           2
# b3lyp/6-31g(d)        
Charge                                     I                1
Multiplicity                               I                2
Number of electrons                        I               23
Number of alpha electrons                  I               12
Number of beta electrons                   I               11
Number of basis functions                  I               57
Number of independent functions            I               57
Number of point charges in /Mol/           I                0
Number of translation vectors              I                0
Atomic numbers                             I   N=           9
           6           1           1           1           6           1
           6           1           1
Nuclear charges                            R   N=           9
  6.00000000E+00  1.00000000E+00  1.00000000E+00  1.00000000E+00  6.00000000E+00
  1.00000000E+00  6.00000000E+00  1.00000000E+00  1.00000000E+00
Current cartesian coordinates              R   N=          27
 -2.15902533E+00 -9.64521883E-01  0.00000000E+00 -3.99271540E+00 -8.59825387E-03
  0.00000000E+00 -2.09865236E+00 -2.19443123E+00  1.66767953E+00 -2.09865236E+00
 -2.19443123E+00 -1.66767953E+00  2.24359440E-17  9.07561758E-01  0.00000000E+00
 -5.12756397E-01  2.90262500E+00  0.00000000E+00  2.44429271E+00  2.95265928E-01
  0.00000000E+00  3.07592422E+00 -1.66320843E+00  0.00000000E+00  3.91525364E+00
  1.72820934E+00  0.00000000E+00
Number of symbols in /Mol/                 I                0
Force Field                                I                0
Atom Types                                 C   N=           9
                                                            
                                                
Int Atom Types                             I   N=           9
           0           0           0           0           0           0
           0           0           0
MM charges                                 R   N=           9
  0.00000000E+00  0.00000000E+00  0.00000000E+00  0.00000000E+00  0.00000000E+00
  0.00000000E+00  0.00000000E+00  0.00000000E+00  0.00000000E+00
Integer atomic weights                     I   N=           9
          12           1           1           1          12           1
          12           1           1
Real atomic weights                        R   N=           9
  1.20000000E+01  1.00782504E+00  1.00782504E+00  1.00782504E+00  1.20000000E+01
  1.00782504E+00  1.20000000E+01  1.00782504E+00  1.00782504E+00
Atom fragment info                         I   N=           9
           0           0           0           0           0           0
           0           0           0
Atom residue num                           I   N=           9
           0           0           0           0           0           0
           0           0           0
Nuclear spins                              I   N=           9
           0           1           1           1           0           1
           0           1           1
Nuclear ZEff                               R   N=           9
 -3.60000000E+00 -1.00000000E+00 -1.00000000E+00 -1.00000000E+00 -3.60000000E+00
 -1.00000000E+00 -3.60000000E+00 -1.00000000E+00 -1.00000000E+00
Nuclear ZNuc                               R   N=           9
  6.00000000E+00  1.00000000E+00  1.00000000E+00  1.00000000E+00  6.00000000E+00
  1.00000000E+00  6.00000000E+00  1.00000000E+00  1.00000000E+00
Nuclear QMom                               R   N=           9
  0.00000000E+00  0.00000000E+00  0.00000000E+00  0.00000000E+00  0.00000000E+00
  0.00000000E+00  0.00000000E+00  0.00000000E+00  0.00000000E+00
Nuclear GFac                               R   N=           9
  0.00000000E+00  2.79284600E+00  2.79284600E+00  2.79284600E+00  0.00000000E+00
  2.79284600E+00  0.00000000E+00  2.79284600E+00  2.79284600E+00
MicOpt                                     I   N=           9
          -1          -1          -1          -1          -1          -1
          -1          -1          -1
Number of residues                         I                0
Number of secondary structures             I                0
SymInf integers                            I   N=          26
           2           2           1           1           1           1
           1          -1           0           0           0           0
           0           0           0           0           0           0
           0           0           0           0           0           0
           0           0
RotTr to input orientation                 R   N=          12
  1.00000000E+00  2.60275142E-07  0.00000000E+00 -2.60275142E-07  1.00000000E+00
  0.00000000E+00  0.00000000E+00  0.00000000E+00  1.00000000E+00  2.36215765E-07
  1.11022302E-16  0.00000000E+00
Number of contracted shells                I               24
Number of primitive shells                 I               57
Pure/Cartesian d shells                    I                1
Pure/Cartesian f shells                    I                0
Highest angular momentum                   I                2
Largest degree of contraction              I                6
Shell types                                I   N=          24
           0          -1          -1           2           0           0
           0           0           0           0           0          -1
          -1           2           0           0           0          -1
          -1           2           0           0           0           0
Number of primitives per shell             I   N=          24
           6           3           1           1           3           1
           3           1           3           1           6           3
           1           1           3           1           6           3
           1           1           3           1           3           1
Shell to atom map                          I   N=          24
           1           1           1           1           2           2
           3           3           4           4           5           5
           5           5           6           6           7           7
           7           7           8           8           9           9
Primitive exponents                        R   N=          57
  3.04752488E+03  4.57369518E+02  1.03948685E+02  2.92101553E+01  9.28666296E+00
  3.16392696E+00  7.86827235E+00  1.88128854E+00  5.44249258E-01  1.68714478E-01
  8.00000000E-01  1.87311370E+01  2.82539436E+00  6.40121692E-01  1.61277759E-01
  1.87311370E+01  2.82539436E+00  6.40121692E-01  1.61277759E-01  1.87311370E+01
  2.82539436E+00  6.40121692E-01  1.61277759E-01  3.04752488E+03  4.57369518E+02
  1.03948685E+02  2.92101553E+01  9.28666296E+00  3.16392696E+00  7.86827235E+00
  1.88128854E+00  5.44249258E-01  1.68714478E-01  8.00000000E-01  1.87311370E+01
  2.82539436E+00  6.40121692E-01  1.61277759E-01  3.04752488E+03  4.57369518E+02
  1.03948685E+02  2.92101553E+01  9.28666296E+00  3.16392696E+00  7.86827235E+00
  1.88128854E+00  5.44249258E-01  1.68714478E-01  8.00000000E-01  1.87311370E+01
  2.82539436E+00  6.40121692E-01  1.61277759E-01  1.87311370E+01  2.82539436E+00
  6.40121692E-01  1.61277759E-01
Contraction coefficients                   R   N=          57
  1.83473713E-03  1.40373228E-02  6.88426223E-02  2.32184443E-01  4.67941348E-01
  3.62311985E-01 -1.19332420E-01 -1.60854152E-01  1.14345644E+00  1.00000000E+00
  1.00000000E+00  3.34946043E-02  2.34726953E-01  8.13757326E-01  1.00000000E+00
  3.34946043E-02  2.34726953E-01  8.13757326E-01  1.00000000E+00  3.34946043E-02
  2.34726953E-01  8.13757326E-01  1.00000000E+00  1.83473713E-03  1.40373228E-02
  6.88426223E-02  2.32184443E-01  4.67941348E-01  3.62311985E-01 -1.19332420E-01
 -1.60854152E-01  1.14345644E+00  1.00000000E+00  1.00000000E+00  3.34946043E-02
  2.34726953E-01  8.13757326E-01  1.00000000E+00  1.83473713E-03  1.40373228E-02
  6.88426223E-02  2.32184443E-01  4.67941348E-01  3.62311985E-01 -1.19332420E-01
 -1.60854152E-01  1.14345644E+00  1.00000000E+00  1.00000000E+00  3.34946043E-02
  2.34726953E-01  8.13757326E-01  1.00000000E+00  3.34946043E-02  2.34726953E-01
  8.13757326E-01  1.00000000E+00
P(S=P) Contraction coefficients            R   N=          57
  0.00000000E+00  0.00000000E+00  0.00000000E+00  0.00000000E+00  0.00000000E+00
  0.00000000E+00  6.89990666E-02  3.16423961E-01  7.44308291E-01  1.00000000E+00
  0.00000000E+00  0.00000000E+00  0.00000000E+00  0.00000000E+00  0.00000000E+00
  0.00000000E+00  0.00000000E+00  0.00000000E+00  0.00000000E+00  0.00000000E+00
  0.00000000E+00  0.00000000E+00  0.00000000E+00  0.00000000E+00  0.00000000E+00
  0.00000000E+00  0.00000000E+00  0.00000000E+00  0.00000000E+00  6.89990666E-02
  3.16423961E-01  7.44308291E-01  1.00000000E+00  0.00000000E+00  0.00000000E+00
  0.00000000E+00  0.00000000E+00  0.00000000E+00  0.00000000E+00  0.00000000E+00
  0.00000000E+00  0.00000000E+00  0.00000000E+00  0.00000000E+00  6.89990666E-02
  3.16423961E-01  7.44308291E-01  1.00000000E+00  0.00000000E+00  0.00000000E+00
  0.00000000E+00  0.00000000E+00  0.00000000E+00  0.00000000E+00  0.00000000E+00
  0.00000000E+00  0.00000000E+00
Coordinates of each shell                  R   N=          72
 -2.15902581E+00 -9.64521321E-01  0.00000000E+00 -2.15902581E+00 -9.64521321E-01
  0.00000000E+00 -2.15902581E+00 -9.64521321E-01  0.00000000E+00 -2.15902581E+00
 -9.64521321E-01  0.00000000E+00 -3.99271564E+00 -8.59721466E-03  0.00000000E+00
 -3.99271564E+00 -8.59721466E-03  0.00000000E+00 -2.09865316E+00 -2.19443069E+00
  1.66767953E+00 -2.09865316E+00 -2.19443069E+00  1.66767953E+00 -2.09865316E+00
 -2.19443069E+00 -1.66767953E+00 -2.09865316E+00 -2.19443069E+00 -1.66767953E+00
  0.00000000E+00  9.07561758E-01  0.00000000E+00  0.00000000E+00  9.07561758E-01
  0.00000000E+00  0.00000000E+00  9.07561758E-01  0.00000000E+00  0.00000000E+00
  9.07561758E-01  0.00000000E+00 -5.12755878E-01  2.90262513E+00  0.00000000E+00
 -5.12755878E-01  2.90262513E+00  0.00000000E+00  2.44429255E+00  2.95265291E-01
  0.00000000E+00  2.44429255E+00  2.95265291E-01  0.00000000E+00  2.44429255E+00
  2.95265291E-01  0.00000000E+00  2.44429255E+00  2.95265291E-01  0.00000000E+00
  3.07592355E+00 -1.66320923E+00  0.00000000E+00  3.07592355E+00 -1.66320923E+00
  0.00000000E+00  3.91525385E+00  1.72820832E+00  0.00000000E+00  3.91525385E+00
  1.72820832E+00  0.00000000E+00
Num ILSW                                   I              100
ILSW                                       I   N=         100
           1           1           0           0           2           0
           0           0           0           0         402          -1
           5           0           0           0           0           0
           0           0           1           0           0           0
           1           0           0           0           0           0
           0           0      100000           0          -1           0
           0           0           0           0           0           0
           0           0           0           1           0           0
           0 -2000000000           1           0           0           0
           0           0           4          52           0           0
           0           0           5           0           0           0
           0           0           0           0           0           1
           0           0           0           0           0           0
           0           0           0           0           0           0
           0           0           0           0           0           0
           0           0           0           0           0           0
           0           0           0           0
Num RLSW                                   I               52
RLSW                                       R   N=          52
  8.00000000E-01  7.20000000E-01  1.00000000E+00  8.10000000E-01  2.00000000E-01
  0.00000000E+00  0.00000000E+00  1.00000000E+00  0.00000000E+00  0.00000000E+00
  0.00000000E+00  0.00000000E+00  1.00000000E+00  0.00000000E+00  0.00000000E+00
  0.00000000E+00  0.00000000E+00  1.00000000E+00  0.00000000E+00  0.00000000E+00
  0.00000000E+00  0.00000000E+00  1.00000000E+00  0.00000000E+00  0.00000000E+00
  0.00000000E+00  0.00000000E+00  1.00000000E+00  0.00000000E+00  0.00000000E+00
  0.00000000E+00  0.00000000E+00  1.00000000E+00  0.00000000E+00  0.00000000E+00
  0.00000000E+00  0.00000000E+00  0.00000000E+00  1.00000000E+00  1.00000000E+00
  0.00000000E+00  1.00000000E+00  0.00000000E+00  0.00000000E+00  0.00000000E+00
  0.00000000E+00  0.00000000E+00  0.00000000E+00  0.00000000E+00  0.00000000E+00
  0.00000000E+00  0.00000000E+00
MxBond                                     I                4
NBond                                      I   N=           9
           4           1           1           1           3           1
           3           1           1
IBond                                      I   N=          36
           2           3           4           5           1           0
           0           0           1           0           0           0
           1           0           0           0           1           6
           7           0           5           0           0           0
           5           8           9           0           7           0
           0           0           7           0           0           0
RBond                                      R   N=          36
  1.00000000E+00  1.00000000E+00  1.00000000E+00  1.00000000E+00  1.00000000E+00
  0.00000000E+00  0.00000000E+00  0.00000000E+00  1.00000000E+00  0.00000000E+00
  0.00000000E+00  0.00000000E+00  1.00000000E+00  0.00000000E+00  0.00000000E+00
  0.00000000E+00  1.00000000E+00  1.00000000E+00  2.00000000E+00  0.00000000E+00
  1.00000000E+00  0.00000000E+00  0.00000000E+00  0.00000000E+00  2.00000000E+00
  1.00000000E+00  1.00000000E+00  0.00000000E+00  1.00000000E+00  0.00000000E+00
  0.00000000E+00  0.00000000E+00  1.00000000E+00  0.00000000E+00  0.00000000E+00
  0.00000000E+00
Virial Ratio                               R      2.009030898217977E+00
SCF Energy                                 R     -1.175538691999729E+02
Total Energy                               R     -1.175538691999729E+02
S**2                                       R      7.517643695486136E-01
S**2 after annihilation                    R      7.500025399505091E-01
RMS Density                                R      2.976795455037051E-09
Job Status                                 I                1
Nuclear derivative order                   I                0
External E-field                           R   N=          35
  0.00000000E+00  0.00000000E+00  0.00000000E+00  0.00000000E+00  0.00000000E+00
  0.00000000E+00  0.00000000E+00  0.00000000E+00  0.00000000E+00  0.00000000E+00
  0.00000000E+00  0.00000000E+00  0.00000000E+00  0.00000000E+00  0.00000000E+00
  0.00000000E+00  0.00000000E+00  0.00000000E+00  0.00000000E+00  0.00000000E+00
  0.00000000E+00  0.00000000E+00  0.00000000E+00  0.00000000E+00  0.00000000E+00
  0.00000000E+00  0.00000000E+00  0.00000000E+00  0.00000000E+00  0.00000000E+00
  0.00000000E+00  0.00000000E+00  0.00000000E+00  0.00000000E+00  0.00000000E+00
IOpCl                                      I                1
IROHF                                      I                0
Alpha Orbital Energies                     R   N=          57
 -1.05144754E+01 -1.05039877E+01 -1.04197311E+01 -1.09285372E+00 -9.50237208E-01
 -8.31272403E-01 -7.45364201E-01 -7.00905567E-01 -6.65007340E-01 -6.20087024E-01
 -6.03259219E-01 -5.70909946E-01 -2.89329310E-01 -1.17209895E-01 -8.95170447E-02
 -7.12213267E-02 -5.16656476E-02 -2.45121244E-02 -1.27141452E-02  5.23839625E-02
  9.14584571E-02  2.29752491E-01  2.60977571E-01  2.77487408E-01  3.35947955E-01
  3.51742767E-01  4.00363935E-01  4.21469561E-01  5.06943409E-01  5.19330740E-01
  5.93419207E-01  6.33453259E-01  6.46140207E-01  6.80092883E-01  6.91367579E-01
  7.39673566E-01  8.36576079E-01  9.67533910E-01  1.06171197E+00  1.11701079E+00
  1.16502734E+00  1.38845930E+00  1.53204329E+00  1.60674340E+00  1.62862421E+00
  1.82565021E+00  1.83434665E+00  1.88204137E+00  1.92662868E+00  2.01556792E+00
  2.18110985E+00  2.22613931E+00  2.44017750E+00  2.56177649E+00  3.79021849E+00
  3.90921900E+00  4.11937269E+00
Beta Orbital Energies                      R   N=          57
 -1.05092500E+01 -1.04957997E+01 -1.04192385E+01 -1.06517233E+00 -9.38599101E-01
 -8.19294663E-01 -7.38189041E-01 -6.93199873E-01 -6.39499349E-01 -6.17549180E-01
 -5.99367602E-01 -4.51513266E-01 -2.33746627E-01 -1.13821726E-01 -8.40628830E-02
 -6.77207613E-02 -4.42942730E-02 -1.67151440E-02 -9.49809034E-03  5.64960079E-02
  9.82505128E-02  2.38069359E-01  2.80125976E-01  2.94309655E-01  3.42124484E-01
  3.76386966E-01  4.17457187E-01  4.37861148E-01  5.13507962E-01  5.24261638E-01
  5.97897107E-01  6.37782072E-01  6.55170955E-01  6.88506811E-01  6.96026320E-01
  7.44622980E-01  8.50285291E-01  9.70263004E-01  1.06962353E+00  1.14783248E+00
  1.19511748E+00  1.42294030E+00  1.53807338E+00  1.61566756E+00  1.65733219E+00
  1.84366690E+00  1.84870209E+00  1.90763289E+00  1.94666119E+00  2.01875125E+00
  2.20665175E+00  2.24472799E+00  2.44899408E+00  2.56744303E+00  3.80962739E+00
  3.92174601E+00  4.12816453E+00
Alpha MO coefficients                      R   N=        3249
  1.17871276E-03 -1.58868796E-04 -1.05105277E-04 -1.90638352E-04  0.00000000E+00
  3.49593304E-03  1.46257536E-03  1.23815338E-03  0.00000000E+00 -2.05788132E-04
 -3.09192692E-04 -4.91302666E-05 -1.41062774E-04  0.00000000E+00  0.00000000E+00
 -8.30684566E-05 -1.01452006E-04 -1.73410953E-04  3.04106248E-04 -1.73410953E-04
  3.04106248E-04  9.91765821E-01  4.98692262E-02  6.47149893E-04 -2.39334567E-04
  0.00000000E+00 -1.45290001E-02 -5.72057453E-04  1.63773920E-03  0.00000000E+00
 -9.26012462E-03 -9.68583036E-03 -9.62678866E-03 -1.50573848E-04  0.00000000E+00
  0.00000000E+00 -2.58900526E-04  1.70429872E-03  4.25387528E-02  1.64504194E-03
  4.80410844E-04 -1.03665014E-04  0.00000000E+00  4.64633186E-03 -2.06756698E-03
 -2.18587279E-04  0.00000000E+00 -9.05473262E-04 -6.71425232E-04 -5.75102654E-04
  1.20935515E-04  0.00000000E+00  0.00000000E+00 -1.40646167E-04 -3.00426106E-04
 -4.59372789E-05  2.68797999E-04 -1.08726929E-04 -1.32263007E-04 -6.84719620E-05
  1.11318653E-05  0.00000000E+00  1.39695101E-05  2.42485795E-04  5.39643696E-05
  0.00000000E+00  5.65580367E-05  3.29826624E-05 -4.00451707E-05  5.25811436E-05
  0.00000000E+00  0.00000000E+00  1.62492193E-05  2.17726231E-04 -3.41265261E-05
  3.24982464E-05 -3.41265261E-05  3.24982464E-05 -4.30630998E-02 -2.61204344E-03
 -5.31779003E-04  1.51601911E-04  0.00000000E+00  5.08728138E-03  2.10935726E-03
 -3.82181345E-04  0.00000000E+00 -7.18424884E-05  1.79071068E-04  2.71012913E-04
  5.09579624E-05  0.00000000E+00  0.00000000E+00 -6.46032308E-05 -9.01848366E-05
  9.91615587E-01  5.04857536E-02 -6.60622441E-04  1.55665226E-04  0.00000000E+00
 -1.32243063E-02  1.36921765E-03 -3.43031832E-04  0.00000000E+00 -9.63459388E-03
 -1.00203892E-02 -9.93602816E-03 -1.18894184E-04  0.00000000E+00  0.00000000E+00
 -2.19210793E-04  2.01943194E-03 -2.26313119E-04  2.02613554E-03  9.92857331E-01
  5.02311071E-02  3.66193844E-04  1.08371324E-04  0.00000000E+00 -1.69124811E-02
 -8.73204478E-04 -6.60258131E-04  0.00000000E+00 -9.28193504E-03 -9.28190532E-03
 -9.18771535E-03 -2.65218472E-05  0.00000000E+00  0.00000000E+00  3.50921665E-06
  2.56494193E-03 -3.85051460E-05  2.66999275E-03 -3.85051460E-05  2.66999275E-03
 -1.39884569E-03 -1.90951300E-04  1.45107530E-04  1.55174828E-04  0.00000000E+00
  3.61747909E-03 -2.23297454E-03 -1.30957465E-03  0.00000000E+00 -3.87216940E-04
 -2.36569567E-04 -1.33597070E-04 -2.22683036E-04  0.00000000E+00  0.00000000E+00
 -1.37006446E-04 -2.71418735E-05  1.72160920E-05 -1.72922705E-04  7.97475747E-05
  7.93507775E-05  0.00000000E+00  6.40277066E-04 -7.35044587E-04  1.23357924E-04
  0.00000000E+00  7.83773861E-05  3.75682187E-05 -1.11138776E-04 -5.97184955E-05
  0.00000000E+00  0.00000000E+00 -9.01022502E-05  2.21055884E-04 -8.63434897E-06
  3.51113875E-04 -6.60550103E-02  1.23634549E-01  5.02735550E-02  3.05993972E-02
  0.00000000E+00  9.35510795E-02  1.01916574E-02 -2.15991604E-03  0.00000000E+00
  4.86705516E-03  9.75958080E-04 -1.57988984E-03  5.93998057E-03  0.00000000E+00
  0.00000000E+00  2.63932293E-02  1.93730255E-03  3.19319701E-02 -1.52574706E-03
  3.19319701E-02 -1.52574706E-03 -1.63048165E-01  3.28142048E-01  1.01428408E-01
 -3.97854228E-02  0.00000000E+00  2.18674766E-01  5.44255027E-03  3.36145592E-03
  0.00000000E+00  5.78507127E-03 -4.43504254E-03 -1.16757556E-02 -3.44695475E-03
  0.00000000E+00  0.00000000E+00  7.21955052E-02 -3.29921909E-03 -1.48420051E-01
  2.96154056E-01 -1.23593474E-01  2.76773165E-02  0.00000000E+00  2.16621605E-01
 -1.15771550E-02  2.07528605E-03  0.00000000E+00  8.04991428E-03 -4.19159242E-03
 -9.20654041E-03 -3.53579015E-03  0.00000000E+00  0.00000000E+00  6.44170787E-02
 -1.84877561E-03  6.29309401E-02 -2.72508949E-03 -1.69068299E-01  3.28521037E-01
  1.09294703E-02  1.38459619E-02  0.00000000E+00  3.09959474E-01  5.88605750E-04
  1.40245105E-03  0.00000000E+00 -2.77939698E-03  3.70116202E-04  2.27074771E-03
 -1.46976668E-03  0.00000000E+00  0.00000000E+00  1.04871763E-01  1.45283994E-02
  1.09897285E-01  1.70634003E-02  1.09897285E-01  1.70634003E-02 -2.83081234E-02
  5.70092790E-02 -2.09624959E-01 -5.43002732E-02  0.00000000E+00  6.36079302E-02
 -3.27293977E-02 -1.67876145E-02  0.00000000E+00 -5.08205310E-03  8.31849132E-03
 -2.10951242E-03  1.19184376E-02  0.00000000E+00  0.00000000E+00  2.07381020E-02
  7.87479282E-03  1.10704684E-01 -2.26797537E-01 -7.22628178E-03 -2.79030295E-02
  0.00000000E+00 -2.16971310E-01 -4.29125110E-03 -6.73401766E-03  0.00000000E+00
  3.13727979E-03 -2.61750914E-03  5.84369803E-03  3.23466117E-04  0.00000000E+00
  0.00000000E+00 -6.64085618E-02 -7.32829719E-03 -8.34312856E-02 -1.17856791E-02
  7.16031655E-02 -1.40840958E-01  5.44912666E-02  1.05124001E-01  0.00000000E+00
 -1.68735902E-01  8.31638149E-03  3.03776843E-02  0.00000000E+00  4.27905436E-03
  4.64793963E-03 -6.82216385E-03  9.23131225E-03  0.00000000E+00  0.00000000E+00
 -5.24336255E-02 -1.39503569E-02 -8.45515171E-02 -2.79553841E-02 -8.45515171E-02
 -2.79553841E-02 -1.17616202E-01  2.50649690E-01 -1.97626579E-02  1.75613927E-01
  0.00000000E+00  2.86545665E-01 -2.69427311E-03  6.35780819E-02  0.00000000E+00
 -1.21427874E-02  5.17531120E-03 -6.36964810E-03 -3.62997982E-03  0.00000000E+00
  0.00000000E+00  1.71115236E-01  4.97185106E-02  9.14991657E-02 -1.91014476E-01
 -1.95204635E-01  1.34098799E-01  0.00000000E+00 -2.42118240E-01 -4.36209608E-02
  4.10694222E-02  0.00000000E+00  1.04852562E-02 -1.20831606E-02  4.30924098E-03
 -9.58488386E-03  0.00000000E+00  0.00000000E+00 -1.57473898E-01 -5.42067721E-02
 -9.80822656E-02 -3.30856205E-02 -2.39744349E-02  4.71086148E-02 -1.48749233E-01
  2.36251699E-02  0.00000000E+00  7.84771927E-02 -5.51116440E-02  2.33325913E-02
  0.00000000E+00 -4.95699087E-03  4.83535492E-03  1.76024853E-04 -6.91833452E-03
  0.00000000E+00  0.00000000E+00  8.88453807E-02  3.56357160E-02  1.20396330E-02
  5.88805496E-03  1.20396330E-02  5.88805496E-03  2.31931768E-02 -5.36123680E-02
 -1.31835151E-01  2.96700175E-01  0.00000000E+00 -4.11704702E-02 -3.04366867E-02
  1.09838064E-01  0.00000000E+00  1.84716217E-03  9.77443125E-03  2.50282743E-04
  7.70659830E-03  0.00000000E+00  0.00000000E+00  1.39141304E-01  7.43751862E-02
 -1.84147673E-02  3.69781759E-02  3.16851441E-01  2.34930389E-01  0.00000000E+00
  7.58933338E-02  1.02783163E-01  1.08742485E-01  0.00000000E+00 -4.96377465E-03
  1.11225563E-02 -1.05578743E-03  9.06348949E-03  0.00000000E+00  0.00000000E+00
 -4.01095741E-02 -8.93319012E-03  2.13045651E-01  9.72598957E-02 -2.48681758E-02
  4.55709355E-02 -1.06915254E-01 -2.29284587E-01  0.00000000E+00  8.80461863E-02
 -3.33760424E-02 -8.70807589E-02  0.00000000E+00 -4.40965649E-03 -3.52788191E-03
  1.16884750E-02 -8.59671283E-03  0.00000000E+00  0.00000000E+00  1.63764272E-02
  3.92737488E-03  9.87594456E-02  4.89246025E-02  9.87594456E-02  4.89246025E-02
  2.62440331E-02 -5.85013297E-02  3.46631566E-01 -1.06926059E-02  0.00000000E+00
 -9.43735630E-02  1.13674345E-01 -1.23197742E-02  0.00000000E+00  1.11159979E-02
 -1.31953731E-02  1.26098419E-03  4.16421071E-03  0.00000000E+00  0.00000000E+00
 -8.78300626E-02 -5.06081206E-02 -2.56147295E-03  1.05322829E-02 -2.20702255E-01
  3.15234090E-01  0.00000000E+00 -3.38396524E-02 -5.81424793E-02  1.40561927E-01
  0.00000000E+00  7.66067816E-03 -1.72436640E-02  6.43279692E-04  2.72188115E-03
  0.00000000E+00  0.00000000E+00 -1.99498394E-01 -1.05508025E-01  3.14818437E-02
  3.48725403E-03  0.00000000E+00  0.00000000E+00  0.00000000E+00  0.00000000E+00
  3.89573349E-01  0.00000000E+00  0.00000000E+00  0.00000000E+00  1.77053740E-01
  0.00000000E+00  0.00000000E+00  0.00000000E+00  0.00000000E+00  9.12737006E-03
 -1.75126940E-02  0.00000000E+00  0.00000000E+00  1.91787603E-01  1.21305776E-01
 -1.91787603E-01 -1.21305776E-01  0.00000000E+00  0.00000000E+00  0.00000000E+00
  0.00000000E+00  2.67789919E-01  0.00000000E+00  0.00000000E+00  0.00000000E+00
  1.38585576E-01  0.00000000E+00  0.00000000E+00  0.00000000E+00  0.00000000E+00
  4.02291048E-03 -1.07000462E-02  0.00000000E+00  0.00000000E+00  0.00000000E+00
  0.00000000E+00  0.00000000E+00  0.00000000E+00  1.85586492E-01  0.00000000E+00
  0.00000000E+00  0.00000000E+00  9.63996329E-02  0.00000000E+00  0.00000000E+00
  0.00000000E+00  0.00000000E+00 -1.35512326E-02  2.26853430E-03  0.00000000E+00
  0.00000000E+00  0.00000000E+00  0.00000000E+00 -3.83600832E-03  1.28404425E-02
  3.74461868E-01  9.16034620E-03  0.00000000E+00 -1.10943028E-03  1.66336041E-01
 -6.03402615E-03  0.00000000E+00 -6.93750978E-03 -5.85110752E-04  1.43920584E-03
  1.72646571E-02  0.00000000E+00  0.00000000E+00 -1.98020293E-01 -1.34093895E-01
  6.38888916E-03  5.36622045E-04  6.38888916E-03  5.36622045E-04 -1.76079059E-02
  4.11278382E-02 -1.89842806E-01 -2.28359185E-01  0.00000000E+00  7.16463319E-02
 -4.23803427E-02 -1.20043185E-01  0.00000000E+00 -3.83511725E-03 -1.92230456E-03
  2.80379036E-04  1.82972432E-02  0.00000000E+00  0.00000000E+00 -9.28909856E-02
 -6.03102585E-02  1.23559230E-02 -2.88555651E-02  1.64916462E-01  2.31133845E-01
  0.00000000E+00 -5.32492834E-02  8.18597934E-02  1.17256460E-01  0.00000000E+00
  9.69122935E-03 -4.87429247E-03 -5.10069879E-05  2.30437854E-02  0.00000000E+00
  0.00000000E+00 -1.27933718E-01 -8.35303333E-02  1.73903065E-01  1.20602011E-01
 -1.30592202E-02  3.27183747E-02 -1.42124308E-01  3.68812658E-01  0.00000000E+00
  1.53669465E-02 -1.01891663E-01  1.78647782E-01  0.00000000E+00  2.20947791E-02
 -6.77861910E-03 -1.81327922E-02 -5.32977552E-03  0.00000000E+00  0.00000000E+00
  2.02582317E-01  1.28050081E-01 -1.40623420E-01 -1.05522727E-01 -1.40623420E-01
 -1.05522727E-01  3.00668033E-04  8.12456673E-03  2.03820291E-02 -2.59479924E-01
  0.00000000E+00 -3.19051727E-02 -2.67301665E-02 -1.30621041E-01  0.00000000E+00
  2.09128945E-02 -2.53684652E-02  2.48693226E-04  6.98800665E-03  0.00000000E+00
  0.00000000E+00 -1.78786242E-01 -1.29055879E-01 -1.70876484E-02  4.09136222E-02
 -6.88389879E-02  1.38319270E-01  0.00000000E+00  7.47634761E-02 -2.05857552E-02
  7.92743470E-02  0.00000000E+00  6.10510672E-03 -1.17204727E-02  2.65962341E-04
  1.15143639E-02  0.00000000E+00  0.00000000E+00 -9.54345022E-02 -8.55128914E-02
  5.56847021E-02  2.66687560E-02  0.00000000E+00  0.00000000E+00  0.00000000E+00
  0.00000000E+00 -2.49070368E-01  0.00000000E+00  0.00000000E+00  0.00000000E+00
 -1.51318661E-01  0.00000000E+00  0.00000000E+00  0.00000000E+00  0.00000000E+00
  4.51870838E-03  2.16786825E-02  0.00000000E+00  0.00000000E+00 -1.49484444E-01
 -1.04701684E-01  1.49484444E-01  1.04701684E-01  0.00000000E+00  0.00000000E+00
  0.00000000E+00  0.00000000E+00  3.19464563E-01  0.00000000E+00  0.00000000E+00
  0.00000000E+00  1.94920120E-01  0.00000000E+00  0.00000000E+00  0.00000000E+00
  0.00000000E+00  2.93954819E-02  1.05250809E-03  0.00000000E+00  0.00000000E+00
  0.00000000E+00  0.00000000E+00  0.00000000E+00  0.00000000E+00  4.29624317E-01
  0.00000000E+00  0.00000000E+00  0.00000000E+00  2.60461332E-01  0.00000000E+00
  0.00000000E+00  0.00000000E+00  0.00000000E+00 -2.00481760E-02  6.17889291E-03
  0.00000000E+00  0.00000000E+00  0.00000000E+00  0.00000000E+00  0.00000000E+00
  0.00000000E+00  0.00000000E+00  0.00000000E+00 -2.81097824E-02  0.00000000E+00
  0.00000000E+00  0.00000000E+00  2.60703892E-02  0.00000000E+00  0.00000000E+00
  0.00000000E+00  0.00000000E+00  1.31190880E-02  2.51451311E-02  0.00000000E+00
  0.00000000E+00 -8.87907835E-02 -1.90421632E-01  8.87907835E-02  1.90421632E-01
  0.00000000E+00  0.00000000E+00  0.00000000E+00  0.00000000E+00  4.97996426E-01
  0.00000000E+00  0.00000000E+00  0.00000000E+00  5.43429063E-01  0.00000000E+00
  0.00000000E+00  0.00000000E+00  0.00000000E+00 -1.65429476E-02  9.19944249E-03
  0.00000000E+00  0.00000000E+00  0.00000000E+00  0.00000000E+00  0.00000000E+00
  0.00000000E+00 -4.44400456E-01  0.00000000E+00  0.00000000E+00  0.00000000E+00
 -5.18954170E-01  0.00000000E+00  0.00000000E+00  0.00000000E+00  0.00000000E+00