Title Card Required                                                     
SP        UB3LYP                                                      6-31G(d,p)          
Number of atoms                            I                9
Info1-9                                    I   N=           9
          17          16           0           0           0         110
           1          18        -502
Charge                                     I               -1
Multiplicity                               I                2
Number of electrons                        I               25
Number of alpha electrons                  I               13
Number of beta electrons                   I               12
Number of basis functions                  I               75
Number of independent functions            I               75
Number of point charges in /Mol/           I                0
Number of translation vectors              I                0
Atomic numbers                             I   N=           9
           6           1           1           1           6           1
           6           1           1
Nuclear charges                            R   N=           9
  6.00000000E+00  1.00000000E+00  1.00000000E+00  1.00000000E+00  6.00000000E+00
  1.00000000E+00  6.00000000E+00  1.00000000E+00  1.00000000E+00
Current cartesian coordinates              R   N=          27
 -2.15806535E+00 -9.63854814E-01  0.00000000E+00 -3.99045909E+00 -1.00986965E-02
  0.00000000E+00 -2.09652453E+00 -2.19255097E+00  1.66598634E+00 -2.09652453E+00
 -2.19255097E+00 -1.66598634E+00 -3.33614514E-18  9.07043977E-01  0.00000000E+00
 -5.11480834E-01  2.90133811E+00  0.00000000E+00  2.44321936E+00  2.94884204E-01
  0.00000000E+00  3.07254729E+00 -1.66267932E+00  0.00000000E+00  3.91150822E+00
  1.72810164E+00  0.00000000E+00
Force Field                                I                0
Int Atom Types                             I   N=           9
           0           0           0           0           0           0
           0           0           0
MM charges                                 R   N=           9
  0.00000000E+00  0.00000000E+00  0.00000000E+00  0.00000000E+00  0.00000000E+00
  0.00000000E+00  0.00000000E+00  0.00000000E+00  0.00000000E+00
Integer atomic weights                     I   N=           9
          12           1           1           1          12           1
          12           1           1
Real atomic weights                        R   N=           9
  1.20000000E+01  1.00782504E+00  1.00782504E+00  1.00782504E+00  1.20000000E+01
  1.00782504E+00  1.20000000E+01  1.00782504E+00  1.00782504E+00
Atom fragment info                         I   N=           9
           0           0           0           0           0           0
           0           0           0
Atom residue num                           I   N=           9
           0           0           0           0           0           0
           0           0           0
Nuclear spins                              I   N=           9
           0           1           1           1           0           1
           0           1           1
Nuclear ZEff                               R   N=           9
 -3.60000000E+00 -1.00000000E+00 -1.00000000E+00 -1.00000000E+00 -3.60000000E+00
 -1.00000000E+00 -3.60000000E+00 -1.00000000E+00 -1.00000000E+00
Nuclear ZNuc                               R   N=           9
  6.00000000E+00  1.00000000E+00  1.00000000E+00  1.00000000E+00  6.00000000E+00
  1.00000000E+00  6.00000000E+00  1.00000000E+00  1.00000000E+00
Nuclear QMom                               R   N=           9
  0.00000000E+00  0.00000000E+00  0.00000000E+00  0.00000000E+00  0.00000000E+00
  0.00000000E+00  0.00000000E+00  0.00000000E+00  0.00000000E+00
Nuclear GFac                               R   N=           9
  0.00000000E+00  2.79284600E+00  2.79284600E+00  2.79284600E+00  0.00000000E+00
  2.79284600E+00  0.00000000E+00  2.79284600E+00  2.79284600E+00
MicOpt                                     I   N=           9
          -1          -1          -1          -1          -1          -1
          -1          -1          -1
Number of contracted shells                I               30
Number of primitive shells                 I               63
Pure/Cartesian d shells                    I                1
Pure/Cartesian f shells                    I                0
Highest angular momentum                   I                2
Largest degree of contraction              I                6
Shell types                                I   N=          30
           0          -1          -1           2           0           0
           1           0           0           1           0           0
           1           0          -1          -1           2           0
           0           1           0          -1          -1           2
           0           0           1           0           0           1
Number of primitives per shell             I   N=          30
           6           3           1           1           3           1
           1           3           1           1           3           1
           1           6           3           1           1           3
           1           1           6           3           1           1
           3           1           1           3           1           1
Shell to atom map                          I   N=          30
           1           1           1           1           2           2
           2           3           3           3           4           4
           4           5           5           5           5           6
           6           6           7           7           7           7
           8           8           8           9           9           9
Primitive exponents                        R   N=          63
  3.04752488E+03  4.57369518E+02  1.03948685E+02  2.92101553E+01  9.28666296E+00
  3.16392696E+00  7.86827235E+00  1.88128854E+00  5.44249258E-01  1.68714478E-01
  8.00000000E-01  1.87311370E+01  2.82539436E+00  6.40121692E-01  1.61277759E-01
  1.10000000E+00  1.87311370E+01  2.82539436E+00  6.40121692E-01  1.61277759E-01
  1.10000000E+00  1.87311370E+01  2.82539436E+00  6.40121692E-01  1.61277759E-01
  1.10000000E+00  3.04752488E+03  4.57369518E+02  1.03948685E+02  2.92101553E+01
  9.28666296E+00  3.16392696E+00  7.86827235E+00  1.88128854E+00  5.44249258E-01
  1.68714478E-01  8.00000000E-01  1.87311370E+01  2.82539436E+00  6.40121692E-01
  1.61277759E-01  1.10000000E+00  3.04752488E+03  4.57369518E+02  1.03948685E+02
  2.92101553E+01  9.28666296E+00  3.16392696E+00  7.86827235E+00  1.88128854E+00
  5.44249258E-01  1.68714478E-01  8.00000000E-01  1.87311370E+01  2.82539436E+00
  6.40121692E-01  1.61277759E-01  1.10000000E+00  1.87311370E+01  2.82539436E+00
  6.40121692E-01  1.61277759E-01  1.10000000E+00
Contraction coefficients                   R   N=          63
  1.83473713E-03  1.40373228E-02  6.88426223E-02  2.32184443E-01  4.67941348E-01
  3.62311985E-01 -1.19332420E-01 -1.60854152E-01  1.14345644E+00  1.00000000E+00
  1.00000000E+00  3.34946043E-02  2.34726953E-01  8.13757326E-01  1.00000000E+00
  1.00000000E+00  3.34946043E-02  2.34726953E-01  8.13757326E-01  1.00000000E+00
  1.00000000E+00  3.34946043E-02  2.34726953E-01  8.13757326E-01  1.00000000E+00
  1.00000000E+00  1.83473713E-03  1.40373228E-02  6.88426223E-02  2.32184443E-01
  4.67941348E-01  3.62311985E-01 -1.19332420E-01 -1.60854152E-01  1.14345644E+00
  1.00000000E+00  1.00000000E+00  3.34946043E-02  2.34726953E-01  8.13757326E-01
  1.00000000E+00  1.00000000E+00  1.83473713E-03  1.40373228E-02  6.88426223E-02
  2.32184443E-01  4.67941348E-01  3.62311985E-01 -1.19332420E-01 -1.60854152E-01
  1.14345644E+00  1.00000000E+00  1.00000000E+00  3.34946043E-02  2.34726953E-01
  8.13757326E-01  1.00000000E+00  1.00000000E+00  3.34946043E-02  2.34726953E-01
  8.13757326E-01  1.00000000E+00  1.00000000E+00
P(S=P) Contraction coefficients            R   N=          63
  0.00000000E+00  0.00000000E+00  0.00000000E+00  0.00000000E+00  0.00000000E+00
  0.00000000E+00  6.89990666E-02  3.16423961E-01  7.44308291E-01  1.00000000E+00
  0.00000000E+00  0.00000000E+00  0.00000000E+00  0.00000000E+00  0.00000000E+00
  0.00000000E+00  0.00000000E+00  0.00000000E+00  0.00000000E+00  0.00000000E+00
  0.00000000E+00  0.00000000E+00  0.00000000E+00  0.00000000E+00  0.00000000E+00
  0.00000000E+00  0.00000000E+00  0.00000000E+00  0.00000000E+00  0.00000000E+00
  0.00000000E+00  0.00000000E+00  6.89990666E-02  3.16423961E-01  7.44308291E-01
  1.00000000E+00  0.00000000E+00  0.00000000E+00  0.00000000E+00  0.00000000E+00
  0.00000000E+00  0.00000000E+00  0.00000000E+00  0.00000000E+00  0.00000000E+00
  0.00000000E+00  0.00000000E+00  0.00000000E+00  6.89990666E-02  3.16423961E-01
  7.44308291E-01  1.00000000E+00  0.00000000E+00  0.00000000E+00  0.00000000E+00
  0.00000000E+00  0.00000000E+00  0.00000000E+00  0.00000000E+00  0.00000000E+00
  0.00000000E+00  0.00000000E+00  0.00000000E+00
Coordinates of each shell                  R   N=          90
 -2.15806454E+00 -9.63855751E-01  0.00000000E+00 -2.15806454E+00 -9.63855751E-01
  0.00000000E+00 -2.15806454E+00 -9.63855751E-01  0.00000000E+00 -2.15806454E+00
 -9.63855751E-01  0.00000000E+00 -3.99045869E+00 -1.01004285E-02  0.00000000E+00
 -3.99045869E+00 -1.01004285E-02  0.00000000E+00 -3.99045869E+00 -1.01004285E-02
  0.00000000E+00 -2.09652319E+00 -2.19255188E+00  1.66598634E+00 -2.09652319E+00
 -2.19255188E+00  1.66598634E+00 -2.09652319E+00 -2.19255188E+00  1.66598634E+00
 -2.09652319E+00 -2.19255188E+00 -1.66598634E+00 -2.09652319E+00 -2.19255188E+00
 -1.66598634E+00 -2.09652319E+00 -2.19255188E+00 -1.66598634E+00  0.00000000E+00
  9.07043977E-01  0.00000000E+00  0.00000000E+00  9.07043977E-01  0.00000000E+00
  0.00000000E+00  9.07043977E-01  0.00000000E+00  0.00000000E+00  9.07043977E-01
  0.00000000E+00 -5.11481700E-01  2.90133788E+00  0.00000000E+00 -5.11481700E-01
  2.90133788E+00  0.00000000E+00 -5.11481700E-01  2.90133788E+00  0.00000000E+00
  2.44321962E+00  2.94885265E-01  0.00000000E+00  2.44321962E+00  2.94885265E-01
  0.00000000E+00  2.44321962E+00  2.94885265E-01  0.00000000E+00  2.44321962E+00
  2.94885265E-01  0.00000000E+00  3.07254841E+00 -1.66267798E+00  0.00000000E+00
  3.07254841E+00 -1.66267798E+00  0.00000000E+00  3.07254841E+00 -1.66267798E+00
  0.00000000E+00  3.91150786E+00  1.72810333E+00  0.00000000E+00  3.91150786E+00
  1.72810333E+00  0.00000000E+00  3.91150786E+00  1.72810333E+00  0.00000000E+00
Constraint Structure                       R   N=          27
 -2.15806454E+00 -9.63855751E-01  0.00000000E+00 -3.99045869E+00 -1.01004285E-02
  0.00000000E+00 -2.09652319E+00 -2.19255188E+00  1.66598634E+00 -2.09652319E+00
 -2.19255188E+00 -1.66598634E+00  0.00000000E+00  9.07043977E-01  0.00000000E+00
 -5.11481700E-01  2.90133788E+00  0.00000000E+00  2.44321962E+00  2.94885265E-01
  0.00000000E+00  3.07254841E+00 -1.66267798E+00  0.00000000E+00  3.91150786E+00
  1.72810333E+00  0.00000000E+00
Num ILSW                                   I              100
ILSW                                       I   N=         100
           1           1           0           0           2           0
           0           0           0           0         402          -1
           0           0           0           0           0           0
           0           0           1           0           0           0
           1           0           0           0           0           0
           0           0      100000           0          -1           0
           0           0           0           0           0           0
           0           0           0           1           0           0
           0           0           1           0           0           0
           0           0           4          41           0           0
           0           0           5           0           0           0
           0           0           0           0           0           0
           0           0           0           0           0           0
           0           0           0           0           0           0
           0           0           0           0           0           0
           0           0           0           0           0           0
           0           0           0           0
Num RLSW                                   I               41
RLSW                                       R   N=          41
  8.00000000E-01  7.20000000E-01  1.00000000E+00  8.10000000E-01  2.00000000E-01
  0.00000000E+00  0.00000000E+00  1.00000000E+00  0.00000000E+00  0.00000000E+00
  0.00000000E+00  0.00000000E+00  1.00000000E+00  0.00000000E+00  0.00000000E+00
  0.00000000E+00  0.00000000E+00  1.00000000E+00  0.00000000E+00  0.00000000E+00
  0.00000000E+00  0.00000000E+00  1.00000000E+00  0.00000000E+00  0.00000000E+00
  0.00000000E+00  0.00000000E+00  1.00000000E+00  0.00000000E+00  0.00000000E+00
  0.00000000E+00  0.00000000E+00  1.00000000E+00  0.00000000E+00  0.00000000E+00
  0.00000000E+00  0.00000000E+00  0.00000000E+00  1.00000000E+00  1.00000000E+00
  0.00000000E+00
MxBond                                     I                4
NBond                                      I   N=           9
           4           1           1           1           3           1
           3           1           1
IBond                                      I   N=          36
           2           3           4           5           1           0
           0           0           1           0           0           0
           1           0           0           0           1           6
           7           0           5           0           0           0
           5           8           9           0           7           0
           0           0           7           0           0           0
RBond                                      R   N=          36
  1.00000000E+00  1.00000000E+00  1.00000000E+00  1.00000000E+00  1.00000000E+00
  0.00000000E+00  0.00000000E+00  0.00000000E+00  1.00000000E+00  0.00000000E+00
  0.00000000E+00  0.00000000E+00  1.00000000E+00  0.00000000E+00  0.00000000E+00
  0.00000000E+00  1.00000000E+00  1.00000000E+00  2.00000000E+00  0.00000000E+00
  1.00000000E+00  0.00000000E+00  0.00000000E+00  0.00000000E+00  2.00000000E+00
  1.00000000E+00  1.00000000E+00  0.00000000E+00  1.00000000E+00  0.00000000E+00
  0.00000000E+00  0.00000000E+00  1.00000000E+00  0.00000000E+00  0.00000000E+00
  0.00000000E+00
Virial Ratio                               R      2.006501924622701E+00
SCF Energy                                 R     -1.177993968474151E+02
Total Energy                               R     -1.177993968474151E+02
S**2                                       R      7.525808523671760E-01
S**2 after annihilation                    R      7.500056110771999E-01
RMS Density                                R      3.727424346932389E-09
External E-field                           R   N=          35
  0.00000000E+00  0.00000000E+00  0.00000000E+00  0.00000000E+00  0.00000000E+00
  0.00000000E+00  0.00000000E+00  0.00000000E+00  0.00000000E+00  0.00000000E+00
  0.00000000E+00  0.00000000E+00  0.00000000E+00  0.00000000E+00  0.00000000E+00
  0.00000000E+00  0.00000000E+00  0.00000000E+00  0.00000000E+00  0.00000000E+00
  0.00000000E+00  0.00000000E+00  0.00000000E+00  0.00000000E+00  0.00000000E+00
  0.00000000E+00  0.00000000E+00  0.00000000E+00  0.00000000E+00  0.00000000E+00
  0.00000000E+00  0.00000000E+00  0.00000000E+00  0.00000000E+00  0.00000000E+00
IOpCl                                      I                1
IROHF                                      I                0
Alpha Orbital Energies                     R   N=          75
 -9.95776708E+00 -9.88383005E+00 -9.87484635E+00 -5.19299878E-01 -4.30346172E-01
 -2.92977318E-01 -2.09186899E-01 -1.85144033E-01 -1.65099314E-01 -1.17691238E-01
 -8.38560888E-02  5.00022721E-03  2.07003152E-01  3.08515300E-01  3.36060189E-01
  3.71215471E-01  3.88734018E-01  3.96213005E-01  4.16914165E-01  5.09559890E-01
  5.86741895E-01  7.32652878E-01  7.58184684E-01  7.83843989E-01  8.22020931E-01
  8.42047172E-01  9.14788240E-01  9.30644672E-01  9.79755728E-01  1.02488806E+00
  1.06179160E+00  1.07871658E+00  1.09952657E+00  1.12581239E+00  1.13741466E+00
  1.17445566E+00  1.36343656E+00  1.44495050E+00  1.51726687E+00  1.55264942E+00
  1.67064112E+00  1.74605116E+00  1.88802610E+00  2.06975442E+00  2.07049272E+00
  2.13835387E+00  2.24238091E+00  2.26064951E+00  2.26625812E+00  2.29106436E+00
  2.30369530E+00  2.38535633E+00  2.42654731E+00  2.51917917E+00  2.61832537E+00
  2.63199687E+00  2.68803327E+00  2.74648897E+00  2.87576633E+00  2.88035551E+00
  2.89543531E+00  2.93632068E+00  3.08991445E+00  3.09668351E+00  3.10831610E+00
  3.31397403E+00  3.39194766E+00  3.53236423E+00  3.62455704E+00  3.65182287E+00
  3.72113682E+00  3.95495484E+00  4.45620729E+00  4.63669122E+00  4.84815082E+00
Beta Orbital Energies                      R   N=          75
 -9.95834495E+00 -9.87764160E+00 -9.86926170E+00 -5.09841738E-01 -4.21270285E-01
 -2.76942854E-01 -2.06034655E-01 -1.76965872E-01 -1.60142811E-01 -1.13561428E-01
 -7.95691266E-02  4.87179679E-02  3.04879299E-01  3.11181277E-01  3.41495188E-01
  3.77184040E-01  3.98026210E-01  4.07544736E-01  4.23372267E-01  5.14043181E-01
  5.92423391E-01  7.35999078E-01  7.60237654E-01  7.97792098E-01  8.27196609E-01
  8.61978440E-01  9.42389432E-01  9.49216778E-01  9.85278336E-01  1.03533944E+00
  1.07012704E+00  1.08073141E+00  1.10310810E+00  1.13073503E+00  1.14265685E+00
  1.18231675E+00  1.37868651E+00  1.44969660E+00  1.52260327E+00  1.56283888E+00
  1.69498396E+00  1.76654961E+00  1.88935664E+00  2.07540417E+00  2.08701697E+00
  2.14744147E+00  2.25781807E+00  2.26506112E+00  2.27973637E+00  2.29777445E+00
  2.30614091E+00  2.38936661E+00  2.43938813E+00  2.52105298E+00  2.62613427E+00
  2.64086732E+00  2.69658703E+00  2.75839388E+00  2.88469571E+00  2.88983406E+00
  2.91793800E+00  2.94102909E+00  3.09213238E+00  3.10319628E+00  3.11268829E+00
  3.31916627E+00  3.39534976E+00  3.53469620E+00  3.62663338E+00  3.65814686E+00
  3.72520664E+00  3.95988370E+00  4.46959166E+00  4.64395202E+00  4.85903966E+00
Alpha MO coefficients                      R   N=        5625
  9.93002877E-01  4.94808235E-02 -4.56775896E-04 -3.27560977E-04  0.00000000E+00
 -1.75201178E-02 -7.86507810E-04 -7.59952061E-04  0.00000000E+00 -8.86794623E-03
 -8.87419610E-03 -8.73538127E-03 -1.89424264E-04  0.00000000E+00  0.00000000E+00
 -1.72477891E-04  2.66755427E-03 -2.17253496E-04  1.73407736E-04  0.00000000E+00
 -1.52164615E-04  2.65906663E-03  5.89046984E-05 -1.15597611E-04  2.19707499E-04
 -1.52164615E-04  2.65906663E-03  5.89046984E-05 -1.15597611E-04 -2.19707499E-04
  1.53866376E-03 -1.64121329E-04  1.04558517E-04  1.07161533E-04  0.00000000E+00
  3.80830385E-03 -2.60101647E-03 -1.70548341E-03  0.00000000E+00 -2.89646170E-04
 -2.09194239E-04 -1.69051720E-04 -1.20857992E-04  0.00000000E+00  0.00000000E+00
 -1.10683437E-04  8.87156130E-05  9.96704658E-05 -3.03163256E-06  0.00000000E+00
 -4.99864676E-05 -1.58394557E-04  7.50952781E-05  4.19989985E-05  0.00000000E+00
  7.01230954E-04 -7.10816845E-04  4.20299950E-04  0.00000000E+00  4.67821683E-05
  3.34646065E-05 -1.03741022E-04 -5.93145651E-05  0.00000000E+00  0.00000000E+00
 -5.95139363E-05  3.45881623E-04  3.30978394E-05  8.47595733E-06  0.00000000E+00
 -2.78164486E-05  2.72292531E-04 -1.57889891E-05 -2.59585056E-05  0.00000000E+00
 -1.76424125E-03 -2.28185932E-04 -1.30731321E-04 -1.98761978E-04  0.00000000E+00
  3.60859678E-03  1.40216224E-03  1.36875702E-03  0.00000000E+00 -2.67283927E-04
 -3.65292902E-04 -1.06810807E-04 -1.87191132E-04  0.00000000E+00  0.00000000E+00
 -9.39502401E-05 -1.33421077E-04  1.79205914E-05 -2.75073667E-05  0.00000000E+00
 -1.44674383E-04  3.60097488E-04  2.83051933E-05  5.70739492E-05 -6.06048663E-05
 -1.44674383E-04  3.60097488E-04  2.83051933E-05  5.70739492E-05  6.06048663E-05
  9.91627033E-01  4.99400879E-02 -1.43161795E-04 -7.53376367E-07  0.00000000E+00
 -1.45470007E-02 -2.06676521E-04  1.62841655E-03  0.00000000E+00 -9.39143772E-03
 -9.48583740E-03 -9.54785582E-03 -1.25070722E-04  0.00000000E+00  0.00000000E+00
 -4.20439776E-04  1.72072845E-03 -4.87454044E-05  2.28177222E-04  0.00000000E+00
  4.50484275E-02  1.75084440E-03  3.22656007E-04 -5.54941126E-05  0.00000000E+00
  4.33206600E-03 -2.11879248E-03 -2.86914606E-04  0.00000000E+00 -7.27855210E-04
 -7.36254732E-04 -5.99437239E-04  3.20095745E-05  0.00000000E+00  0.00000000E+00
 -1.22178090E-04 -2.66275198E-04 -2.71516455E-05  6.64572713E-05  0.00000000E+00
 -4.55104732E-06  3.65291175E-04 -6.97402910E-05 -4.35562388E-05  0.00000000E+00
  9.26566120E-05 -9.65677717E-05 -5.59829465E-05  8.54592226E-06  0.00000000E+00
 -1.01622014E-04  1.99246298E-04  8.67726113E-05  0.00000000E+00  4.95827676E-05
  1.50778816E-05 -4.96747676E-05  4.76585595E-05  0.00000000E+00  0.00000000E+00
  2.11489319E-05  2.33461140E-04  2.89243984E-05  8.05297118E-06  0.00000000E+00
 -2.02585409E-05  5.59845672E-05 -3.53900286E-05 -1.47776901E-06 -1.62303734E-05
 -2.02585409E-05  5.59845672E-05 -3.53900286E-05 -1.47776901E-06  1.62303734E-05
 -4.55395364E-02 -2.77841158E-03 -3.71625323E-04  6.87918129E-05  0.00000000E+00
  5.27104899E-03  2.28621530E-03 -5.66464397E-04  0.00000000E+00  1.49228469E-04
  1.21268211E-04  2.80263160E-04  2.10550466E-05  0.00000000E+00  0.00000000E+00
  1.22176147E-06  3.09456963E-05  4.00423812E-05 -1.23367557E-04  0.00000000E+00
  9.91601215E-01  4.98133232E-02  1.56816910E-04 -2.15669327E-05  0.00000000E+00
 -1.35191744E-02  1.37172319E-03 -3.12941238E-04  0.00000000E+00 -9.35393392E-03
 -9.48315063E-03 -9.72220583E-03 -2.95268063E-05  0.00000000E+00  0.00000000E+00
 -3.97306402E-04  2.04002601E-03 -8.83437646E-06 -2.40260356E-04  0.00000000E+00
 -4.23810789E-04  2.02757460E-03  1.12635132E-04  2.22787496E-04  0.00000000E+00
 -1.49721216E-01  2.89044036E-01  2.70904400E-02  2.25213611E-02  0.00000000E+00
  2.25748015E-01  3.35857505E-03 -2.66643905E-03  0.00000000E+00 -2.74555204E-03
 -5.64059202E-03 -9.40500210E-03  4.73910906E-03  0.00000000E+00  0.00000000E+00
  9.62841821E-02  3.75702503E-02  8.29678448E-03 -4.14931969E-03  0.00000000E+00
  9.34574711E-02  3.18280789E-02 -3.21589216E-04  5.34696016E-03 -7.36744137E-03
  9.34574711E-02  3.18280789E-02 -3.21589216E-04  5.34696016E-03  7.36744137E-03
 -1.33936893E-01  2.51788505E-01 -4.42337040E-03 -4.92516684E-02  0.00000000E+00
  1.73129916E-01 -1.55203589E-02 -5.36933431E-03  0.00000000E+00  3.20909175E-03
 -3.34419885E-03 -1.21871137E-02  4.96100623E-03  0.00000000E+00  0.00000000E+00
  6.86944928E-02  2.35638162E-02  2.01389709E-03 -7.10573623E-03  0.00000000E+00
 -8.71261989E-02  1.63643234E-01 -6.91610836E-02  8.73891158E-03  0.00000000E+00
  1.17709919E-01 -6.56089107E-03  4.32479283E-03  0.00000000E+00  4.07868160E-03
 -5.48422230E-03 -8.72007156E-03 -1.66255355E-03  0.00000000E+00  0.00000000E+00
  4.55826814E-02  1.88721072E-02 -2.72166959E-03  4.38893515E-03  0.00000000E+00
  4.03070183E-02  1.21348955E-02 -3.69087386E-03 -2.57580927E-03  0.00000000E+00
  1.20209184E-01 -2.41557839E-01  6.87951621E-02  3.67124131E-02  0.00000000E+00
 -1.93997938E-01  3.40705454E-02  1.52606865E-02  0.00000000E+00  8.76264683E-03
  5.77345849E-03  3.93477883E-03  5.02207775E-03  0.00000000E+00  0.00000000E+00
 -1.10460636E-01 -5.40417778E-02 -7.36758529E-03  4.81313625E-03  0.00000000E+00
 -9.75758336E-02 -4.58268787E-02  1.54691617E-03 -4.11605491E-03  6.90770816E-03
 -9.75758336E-02 -4.58268787E-02  1.54691617E-03 -4.11605491E-03 -6.90770816E-03
 -7.76374102E-02  1.51678386E-01  1.58704329E-01  2.62366685E-02  0.00000000E+00
  1.01685786E-01  2.81580650E-02  1.47094592E-02  0.00000000E+00  1.88544881E-03
 -7.44373593E-03 -7.38769728E-03 -9.89939589E-03  0.00000000E+00  0.00000000E+00
  4.96971281E-02  2.21565112E-02  3.57745997E-03 -4.05603503E-03  0.00000000E+00
 -1.49463181E-01  2.82959045E-01 -4.52369771E-02  2.66261226E-02  0.00000000E+00
  2.25874496E-01  1.10575837E-03 -8.87062129E-04  0.00000000E+00 -1.96523431E-03
 -6.48957195E-03 -1.35881838E-02 -2.65123605E-03  0.00000000E+00  0.00000000E+00
  9.00206380E-02  3.76412402E-02 -3.10500908E-03  8.33068309E-03  0.00000000E+00
  1.01295829E-01  5.01126737E-02 -7.66725738E-03 -5.88684980E-03  0.00000000E+00
  3.11912552E-02 -6.78811051E-02  8.99596739E-02  1.61609077E-01  0.00000000E+00
 -4.71248233E-02  3.97894252E-02  6.48962670E-02  0.00000000E+00  5.07797826E-03
  5.51484778E-03 -4.95167473E-03  8.68602880E-03  0.00000000E+00  0.00000000E+00
 -3.15882183E-02 -2.05331055E-02 -2.95580691E-04  4.36399245E-03  0.00000000E+00
 -7.97741171E-02 -6.23131215E-02  1.43073248E-03 -2.23034238E-04  4.26426421E-03
 -7.97741171E-02 -6.23131215E-02  1.43073248E-03 -2.23034238E-04 -4.26426421E-03
 -1.22746153E-01  2.44335481E-01 -9.98937072E-02  1.07333143E-01  0.00000000E+00
  2.00759634E-01 -4.44529657E-02  3.55669876E-02  0.00000000E+00 -1.39427238E-02
 -1.30118512E-03 -7.43757840E-03  4.62861538E-04  0.00000000E+00  0.00000000E+00
  1.72299232E-01  1.25951703E-01  1.79430293E-03 -1.06625386E-02  0.00000000E+00
  9.70236275E-02 -1.89476967E-01 -1.55464270E-01  7.39879413E-02  0.00000000E+00
 -1.60775097E-01 -5.75908128E-02  2.44216211E-02  0.00000000E+00  1.31415606E-02
 -2.07317637E-03  5.98269729E-03 -6.32025449E-03  0.00000000E+00  0.00000000E+00
 -1.44507724E-01 -1.07861920E-01  1.42590280E-03 -8.91730457E-03  0.00000000E+00
 -1.16492939E-01 -8.31571462E-02  3.63157355E-03  7.14975337E-03  0.00000000E+00
 -1.38045343E-03 -1.86714006E-04  2.93048768E-01 -1.41065648E-01  0.00000000E+00
  3.41584271E-02  1.32795567E-01 -5.42719129E-02  0.00000000E+00 -6.86039950E-03
 -1.53102302E-04  6.61676529E-03  1.17950936E-02  0.00000000E+00  0.00000000E+00
 -2.11446149E-01 -2.12914800E-01 -4.68611600E-03  2.50118382E-03  0.00000000E+00
  5.97197673E-02  5.75586080E-02  5.21474292E-03 -1.03640577E-03 -2.54719194E-03
  5.97197673E-02  5.75586080E-02  5.21474292E-03 -1.03640577E-03  2.54719194E-03
 -3.01153221E-02  6.48112188E-02  4.48526423E-02 -2.15205305E-01  0.00000000E+00
  3.64239075E-02 -3.62415932E-04 -3.69124674E-02  0.00000000E+00 -8.03369068E-03
  6.08144595E-04 -1.26035500E-03  5.53482404E-04  0.00000000E+00  0.00000000E+00
 -9.73288177E-02 -1.20051903E-01 -2.84676255E-04  2.48028227E-03  0.00000000E+00
  1.76088634E-02 -3.73152188E-02 -1.81819695E-01 -1.39095805E-01  0.00000000E+00
 -1.35382732E-02 -7.55479337E-02 -4.73350696E-02  0.00000000E+00  5.64020568E-03
 -4.40426490E-03 -3.91758269E-05 -3.36802629E-03  0.00000000E+00  0.00000000E+00
  2.52047007E-02  3.14463291E-02 -4.67461801E-03 -8.88462404E-04  0.00000000E+00
 -1.50147718E-01 -1.42055955E-01  4.03978334E-03  3.54053573E-03  0.00000000E+00
  0.00000000E+00  0.00000000E+00  0.00000000E+00  0.00000000E+00  4.20991557E-01
  0.00000000E+00  0.00000000E+00  0.00000000E+00  1.65805190E-01  0.00000000E+00
  0.00000000E+00  0.00000000E+00  0.00000000E+00  7.32613017E-04 -1.98434500E-02
  0.00000000E+00  0.00000000E+00  0.00000000E+00  0.00000000E+00  9.22007372E-03
  2.25302890E-01  2.36782320E-01 -1.51837122E-03  6.21949731E-03 -1.53871807E-03
 -2.25302890E-01 -2.36782320E-01  1.51837122E-03 -6.21949731E-03 -1.53871807E-03
  0.00000000E+00  0.00000000E+00  0.00000000E+00  0.00000000E+00  1.23808089E-01
  0.00000000E+00  0.00000000E+00  0.00000000E+00  6.03332058E-02  0.00000000E+00
  0.00000000E+00  0.00000000E+00  0.00000000E+00 -6.98164526E-03 -6.93692861E-03
  0.00000000E+00  0.00000000E+00  0.00000000E+00  0.00000000E+00  2.71526877E-03
  0.00000000E+00  0.00000000E+00  0.00000000E+00  0.00000000E+00  4.48973937E-02
  0.00000000E+00  0.00000000E+00  0.00000000E+00  2.23874603E-02  0.00000000E+00
  0.00000000E+00  0.00000000E+00  0.00000000E+00 -3.41408826E-03 -1.63401341E-04
  0.00000000E+00  0.00000000E+00  0.00000000E+00  0.00000000E+00  1.37658461E-03
  0.00000000E+00  0.00000000E+00  0.00000000E+00  0.00000000E+00  8.35647679E-04
 -5.13557996E-03  1.01102991E-02  2.96182818E-03  3.12151569E-01  0.00000000E+00
  2.58948571E-02  3.16885632E-02  1.34162932E-01  0.00000000E+00  1.32146481E-02
 -4.12704920E-03 -1.31340529E-02 -1.00735023E-03  0.00000000E+00  0.00000000E+00
  1.09367675E-01  1.34264195E-01  4.71466799E-03  3.21435155E-03  0.00000000E+00
 -1.21499706E-01 -1.28388354E-01  9.11785548E-04  3.13489928E-03  5.21831369E-03
 -1.21499706E-01 -1.28388354E-01  9.11785548E-04  3.13489928E-03 -5.21831369E-03
  5.58728659E-04 -1.01110805E-03 -1.75449365E-01 -1.49792808E-01  0.00000000E+00
  4.66690000E-03 -6.20391761E-02 -5.15711998E-02  0.00000000E+00  2.53166521E-03
 -2.67127175E-03  1.56913787E-04 -2.42330075E-03  0.00000000E+00  0.00000000E+00
 -6.24472465E-02 -6.71084258E-02 -5.92139870E-03  9.82340951E-04  0.00000000E+00
 -4.66265211E-03  9.46527026E-03  5.44692606E-02 -2.85454758E-01  0.00000000E+00
  2.23134173E-02  2.87310024E-02 -8.94365655E-02  0.00000000E+00 -4.72561803E-03
  6.44607378E-03  4.12001285E-04 -3.10871121E-03  0.00000000E+00  0.00000000E+00
  1.85075918E-01  1.89322435E-01 -2.18520086E-03  4.84556470E-03  0.00000000E+00
 -9.53946770E-02 -1.14165216E-01  6.02706130E-03 -1.43926355E-03  0.00000000E+00
 -1.73653309E-02  3.79823254E-02  2.63714375E-01 -1.46002422E-02  0.00000000E+00
  8.42208207E-02  1.07627113E-01  3.85728238E-02  0.00000000E+00 -1.77141593E-02
  9.08717042E-03  3.35575977E-03  1.03496066E-02  0.00000000E+00  0.00000000E+00