Title Card Required                                                     
SP        UB3LYP                                                      6-31G(d,p)          
Number of atoms                            I                9
Info1-9                                    I   N=           9
          17          16           0           0           0         110
           1          18        -502
Charge                                     I                1
Multiplicity                               I                2
Number of electrons                        I               23
Number of alpha electrons                  I               12
Number of beta electrons                   I               11
Number of basis functions                  I               75
Number of independent functions            I               75
Number of point charges in /Mol/           I                0
Number of translation vectors              I                0
Atomic numbers                             I   N=           9
           6           1           1           1           6           1
           6           1           1
Nuclear charges                            R   N=           9
  6.00000000E+00  1.00000000E+00  1.00000000E+00  1.00000000E+00  6.00000000E+00
  1.00000000E+00  6.00000000E+00  1.00000000E+00  1.00000000E+00
Current cartesian coordinates              R   N=          27
 -2.15806535E+00 -9.63854814E-01  0.00000000E+00 -3.99045909E+00 -1.00986965E-02
  0.00000000E+00 -2.09652453E+00 -2.19255097E+00  1.66598634E+00 -2.09652453E+00
 -2.19255097E+00 -1.66598634E+00 -3.33614514E-18  9.07043977E-01  0.00000000E+00
 -5.11480834E-01  2.90133811E+00  0.00000000E+00  2.44321936E+00  2.94884204E-01
  0.00000000E+00  3.07254729E+00 -1.66267932E+00  0.00000000E+00  3.91150822E+00
  1.72810164E+00  0.00000000E+00
Force Field                                I                0
Int Atom Types                             I   N=           9
           0           0           0           0           0           0
           0           0           0
MM charges                                 R   N=           9
  0.00000000E+00  0.00000000E+00  0.00000000E+00  0.00000000E+00  0.00000000E+00
  0.00000000E+00  0.00000000E+00  0.00000000E+00  0.00000000E+00
Integer atomic weights                     I   N=           9
          12           1           1           1          12           1
          12           1           1
Real atomic weights                        R   N=           9
  1.20000000E+01  1.00782504E+00  1.00782504E+00  1.00782504E+00  1.20000000E+01
  1.00782504E+00  1.20000000E+01  1.00782504E+00  1.00782504E+00
Atom fragment info                         I   N=           9
           0           0           0           0           0           0
           0           0           0
Atom residue num                           I   N=           9
           0           0           0           0           0           0
           0           0           0
Nuclear spins                              I   N=           9
           0           1           1           1           0           1
           0           1           1
Nuclear ZEff                               R   N=           9
 -3.60000000E+00 -1.00000000E+00 -1.00000000E+00 -1.00000000E+00 -3.60000000E+00
 -1.00000000E+00 -3.60000000E+00 -1.00000000E+00 -1.00000000E+00
Nuclear ZNuc                               R   N=           9
  6.00000000E+00  1.00000000E+00  1.00000000E+00  1.00000000E+00  6.00000000E+00
  1.00000000E+00  6.00000000E+00  1.00000000E+00  1.00000000E+00
Nuclear QMom                               R   N=           9
  0.00000000E+00  0.00000000E+00  0.00000000E+00  0.00000000E+00  0.00000000E+00
  0.00000000E+00  0.00000000E+00  0.00000000E+00  0.00000000E+00
Nuclear GFac                               R   N=           9
  0.00000000E+00  2.79284600E+00  2.79284600E+00  2.79284600E+00  0.00000000E+00
  2.79284600E+00  0.00000000E+00  2.79284600E+00  2.79284600E+00
MicOpt                                     I   N=           9
          -1          -1          -1          -1          -1          -1
          -1          -1          -1
Number of contracted shells                I               30
Number of primitive shells                 I               63
Pure/Cartesian d shells                    I                1
Pure/Cartesian f shells                    I                0
Highest angular momentum                   I                2
Largest degree of contraction              I                6
Shell types                                I   N=          30
           0          -1          -1           2           0           0
           1           0           0           1           0           0
           1           0          -1          -1           2           0
           0           1           0          -1          -1           2
           0           0           1           0           0           1
Number of primitives per shell             I   N=          30
           6           3           1           1           3           1
           1           3           1           1           3           1
           1           6           3           1           1           3
           1           1           6           3           1           1
           3           1           1           3           1           1
Shell to atom map                          I   N=          30
           1           1           1           1           2           2
           2           3           3           3           4           4
           4           5           5           5           5           6
           6           6           7           7           7           7
           8           8           8           9           9           9
Primitive exponents                        R   N=          63
  3.04752488E+03  4.57369518E+02  1.03948685E+02  2.92101553E+01  9.28666296E+00
  3.16392696E+00  7.86827235E+00  1.88128854E+00  5.44249258E-01  1.68714478E-01
  8.00000000E-01  1.87311370E+01  2.82539436E+00  6.40121692E-01  1.61277759E-01
  1.10000000E+00  1.87311370E+01  2.82539436E+00  6.40121692E-01  1.61277759E-01
  1.10000000E+00  1.87311370E+01  2.82539436E+00  6.40121692E-01  1.61277759E-01
  1.10000000E+00  3.04752488E+03  4.57369518E+02  1.03948685E+02  2.92101553E+01
  9.28666296E+00  3.16392696E+00  7.86827235E+00  1.88128854E+00  5.44249258E-01
  1.68714478E-01  8.00000000E-01  1.87311370E+01  2.82539436E+00  6.40121692E-01
  1.61277759E-01  1.10000000E+00  3.04752488E+03  4.57369518E+02  1.03948685E+02
  2.92101553E+01  9.28666296E+00  3.16392696E+00  7.86827235E+00  1.88128854E+00
  5.44249258E-01  1.68714478E-01  8.00000000E-01  1.87311370E+01  2.82539436E+00
  6.40121692E-01  1.61277759E-01  1.10000000E+00  1.87311370E+01  2.82539436E+00
  6.40121692E-01  1.61277759E-01  1.10000000E+00
Contraction coefficients                   R   N=          63
  1.83473713E-03  1.40373228E-02  6.88426223E-02  2.32184443E-01  4.67941348E-01
  3.62311985E-01 -1.19332420E-01 -1.60854152E-01  1.14345644E+00  1.00000000E+00
  1.00000000E+00  3.34946043E-02  2.34726953E-01  8.13757326E-01  1.00000000E+00
  1.00000000E+00  3.34946043E-02  2.34726953E-01  8.13757326E-01  1.00000000E+00
  1.00000000E+00  3.34946043E-02  2.34726953E-01  8.13757326E-01  1.00000000E+00
  1.00000000E+00  1.83473713E-03  1.40373228E-02  6.88426223E-02  2.32184443E-01
  4.67941348E-01  3.62311985E-01 -1.19332420E-01 -1.60854152E-01  1.14345644E+00
  1.00000000E+00  1.00000000E+00  3.34946043E-02  2.34726953E-01  8.13757326E-01
  1.00000000E+00  1.00000000E+00  1.83473713E-03  1.40373228E-02  6.88426223E-02
  2.32184443E-01  4.67941348E-01  3.62311985E-01 -1.19332420E-01 -1.60854152E-01
  1.14345644E+00  1.00000000E+00  1.00000000E+00  3.34946043E-02  2.34726953E-01
  8.13757326E-01  1.00000000E+00  1.00000000E+00  3.34946043E-02  2.34726953E-01
  8.13757326E-01  1.00000000E+00  1.00000000E+00
P(S=P) Contraction coefficients            R   N=          63
  0.00000000E+00  0.00000000E+00  0.00000000E+00  0.00000000E+00  0.00000000E+00
  0.00000000E+00  6.89990666E-02  3.16423961E-01  7.44308291E-01  1.00000000E+00
  0.00000000E+00  0.00000000E+00  0.00000000E+00  0.00000000E+00  0.00000000E+00
  0.00000000E+00  0.00000000E+00  0.00000000E+00  0.00000000E+00  0.00000000E+00
  0.00000000E+00  0.00000000E+00  0.00000000E+00  0.00000000E+00  0.00000000E+00
  0.00000000E+00  0.00000000E+00  0.00000000E+00  0.00000000E+00  0.00000000E+00
  0.00000000E+00  0.00000000E+00  6.89990666E-02  3.16423961E-01  7.44308291E-01
  1.00000000E+00  0.00000000E+00  0.00000000E+00  0.00000000E+00  0.00000000E+00
  0.00000000E+00  0.00000000E+00  0.00000000E+00  0.00000000E+00  0.00000000E+00
  0.00000000E+00  0.00000000E+00  0.00000000E+00  6.89990666E-02  3.16423961E-01
  7.44308291E-01  1.00000000E+00  0.00000000E+00  0.00000000E+00  0.00000000E+00
  0.00000000E+00  0.00000000E+00  0.00000000E+00  0.00000000E+00  0.00000000E+00
  0.00000000E+00  0.00000000E+00  0.00000000E+00
Coordinates of each shell                  R   N=          90
 -2.15806454E+00 -9.63855751E-01  0.00000000E+00 -2.15806454E+00 -9.63855751E-01
  0.00000000E+00 -2.15806454E+00 -9.63855751E-01  0.00000000E+00 -2.15806454E+00
 -9.63855751E-01  0.00000000E+00 -3.99045869E+00 -1.01004285E-02  0.00000000E+00
 -3.99045869E+00 -1.01004285E-02  0.00000000E+00 -3.99045869E+00 -1.01004285E-02
  0.00000000E+00 -2.09652319E+00 -2.19255188E+00  1.66598634E+00 -2.09652319E+00
 -2.19255188E+00  1.66598634E+00 -2.09652319E+00 -2.19255188E+00  1.66598634E+00
 -2.09652319E+00 -2.19255188E+00 -1.66598634E+00 -2.09652319E+00 -2.19255188E+00
 -1.66598634E+00 -2.09652319E+00 -2.19255188E+00 -1.66598634E+00  0.00000000E+00
  9.07043977E-01  0.00000000E+00  0.00000000E+00  9.07043977E-01  0.00000000E+00
  0.00000000E+00  9.07043977E-01  0.00000000E+00  0.00000000E+00  9.07043977E-01
  0.00000000E+00 -5.11481700E-01  2.90133788E+00  0.00000000E+00 -5.11481700E-01
  2.90133788E+00  0.00000000E+00 -5.11481700E-01  2.90133788E+00  0.00000000E+00
  2.44321962E+00  2.94885265E-01  0.00000000E+00  2.44321962E+00  2.94885265E-01
  0.00000000E+00  2.44321962E+00  2.94885265E-01  0.00000000E+00  2.44321962E+00
  2.94885265E-01  0.00000000E+00  3.07254841E+00 -1.66267798E+00  0.00000000E+00
  3.07254841E+00 -1.66267798E+00  0.00000000E+00  3.07254841E+00 -1.66267798E+00
  0.00000000E+00  3.91150786E+00  1.72810333E+00  0.00000000E+00  3.91150786E+00
  1.72810333E+00  0.00000000E+00  3.91150786E+00  1.72810333E+00  0.00000000E+00
Constraint Structure                       R   N=          27
 -2.15806454E+00 -9.63855751E-01  0.00000000E+00 -3.99045869E+00 -1.01004285E-02
  0.00000000E+00 -2.09652319E+00 -2.19255188E+00  1.66598634E+00 -2.09652319E+00
 -2.19255188E+00 -1.66598634E+00  0.00000000E+00  9.07043977E-01  0.00000000E+00
 -5.11481700E-01  2.90133788E+00  0.00000000E+00  2.44321962E+00  2.94885265E-01
  0.00000000E+00  3.07254841E+00 -1.66267798E+00  0.00000000E+00  3.91150786E+00
  1.72810333E+00  0.00000000E+00
Num ILSW                                   I              100
ILSW                                       I   N=         100
           1           1           0           0           2           0
           0           0           0           0         402          -1
           0           0           0           0           0           0
           0           0           1           0           0           0
           1           0           0           0           0           0
           0           0      100000           0          -1           0
           0           0           0           0           0           0
           0           0           0           1           0           0
           0           0           1           0           0           0
           0           0           4          41           0           0
           0           0           5           0           0           0
           0           0           0           0           0           0
           0           0           0           0           0           0
           0           0           0           0           0           0
           0           0           0           0           0           0
           0           0           0           0           0           0
           0           0           0           0
Num RLSW                                   I               41
RLSW                                       R   N=          41
  8.00000000E-01  7.20000000E-01  1.00000000E+00  8.10000000E-01  2.00000000E-01
  0.00000000E+00  0.00000000E+00  1.00000000E+00  0.00000000E+00  0.00000000E+00
  0.00000000E+00  0.00000000E+00  1.00000000E+00  0.00000000E+00  0.00000000E+00
  0.00000000E+00  0.00000000E+00  1.00000000E+00  0.00000000E+00  0.00000000E+00
  0.00000000E+00  0.00000000E+00  1.00000000E+00  0.00000000E+00  0.00000000E+00
  0.00000000E+00  0.00000000E+00  1.00000000E+00  0.00000000E+00  0.00000000E+00
  0.00000000E+00  0.00000000E+00  1.00000000E+00  0.00000000E+00  0.00000000E+00
  0.00000000E+00  0.00000000E+00  0.00000000E+00  1.00000000E+00  1.00000000E+00
  0.00000000E+00
MxBond                                     I                4
NBond                                      I   N=           9
           4           1           1           1           3           1
           3           1           1
IBond                                      I   N=          36
           2           3           4           5           1           0
           0           0           1           0           0           0
           1           0           0           0           1           6
           7           0           5           0           0           0
           5           8           9           0           7           0
           0           0           7           0           0           0
RBond                                      R   N=          36
  1.00000000E+00  1.00000000E+00  1.00000000E+00  1.00000000E+00  1.00000000E+00
  0.00000000E+00  0.00000000E+00  0.00000000E+00  1.00000000E+00  0.00000000E+00
  0.00000000E+00  0.00000000E+00  1.00000000E+00  0.00000000E+00  0.00000000E+00
  0.00000000E+00  1.00000000E+00  1.00000000E+00  2.00000000E+00  0.00000000E+00
  1.00000000E+00  0.00000000E+00  0.00000000E+00  0.00000000E+00  2.00000000E+00
  1.00000000E+00  1.00000000E+00  0.00000000E+00  1.00000000E+00  0.00000000E+00
  0.00000000E+00  0.00000000E+00  1.00000000E+00  0.00000000E+00  0.00000000E+00
  0.00000000E+00
Virial Ratio                               R      2.008987708009348E+00
SCF Energy                                 R     -1.175626734566253E+02
Total Energy                               R     -1.175626734566253E+02
S**2                                       R      7.517417230456172E-01
S**2 after annihilation                    R      7.500024728493592E-01
RMS Density                                R      3.105453371379520E-09
External E-field                           R   N=          35
  0.00000000E+00  0.00000000E+00  0.00000000E+00  0.00000000E+00  0.00000000E+00
  0.00000000E+00  0.00000000E+00  0.00000000E+00  0.00000000E+00  0.00000000E+00
  0.00000000E+00  0.00000000E+00  0.00000000E+00  0.00000000E+00  0.00000000E+00
  0.00000000E+00  0.00000000E+00  0.00000000E+00  0.00000000E+00  0.00000000E+00
  0.00000000E+00  0.00000000E+00  0.00000000E+00  0.00000000E+00  0.00000000E+00
  0.00000000E+00  0.00000000E+00  0.00000000E+00  0.00000000E+00  0.00000000E+00
  0.00000000E+00  0.00000000E+00  0.00000000E+00  0.00000000E+00  0.00000000E+00
IOpCl                                      I                1
IROHF                                      I                0
Alpha Orbital Energies                     R   N=          75
 -1.05139991E+01 -1.05036777E+01 -1.04202797E+01 -1.09262528E+00 -9.50264717E-01
 -8.30328641E-01 -7.44306979E-01 -7.00081900E-01 -6.64566011E-01 -6.19344569E-01
 -6.02224548E-01 -5.70345312E-01 -2.89423233E-01 -1.16786268E-01 -8.91657924E-02
 -7.11647091E-02 -5.14737717E-02 -2.45188478E-02 -1.27029353E-02  5.23251744E-02
  8.97897943E-02  2.25172424E-01  2.60801997E-01  2.73902122E-01  3.32698410E-01
  3.49764804E-01  4.00765901E-01  4.14954140E-01  4.93713586E-01  5.09383763E-01
  5.75254000E-01  6.17994962E-01  6.30318220E-01  6.62594421E-01  6.71964742E-01
  7.17527820E-01  8.32270242E-01  9.39111923E-01  1.03250965E+00  1.05342139E+00
  1.06839953E+00  1.17724946E+00  1.41276379E+00  1.53451911E+00  1.54147943E+00
  1.57662229E+00  1.67500696E+00  1.72751807E+00  1.79638777E+00  1.80261829E+00
  1.82127225E+00  1.90730859E+00  1.91014793E+00  2.02093131E+00  2.11566540E+00
  2.11789407E+00  2.16774604E+00  2.19989714E+00  2.33177083E+00  2.33961432E+00
  2.38909603E+00  2.45595040E+00  2.56308151E+00  2.61129303E+00  2.63065465E+00
  2.78055812E+00  2.92992604E+00  3.00298719E+00  3.12849223E+00  3.19170822E+00
  3.21158608E+00  3.40584252E+00  3.85961620E+00  4.09858718E+00  4.31557149E+00
Beta Orbital Energies                      R   N=          75
 -1.05088149E+01 -1.04955171E+01 -1.04197716E+01 -1.06499792E+00 -9.38490144E-01
 -8.18250490E-01 -7.37109932E-01 -6.92329477E-01 -6.38813133E-01 -6.16745112E-01
 -5.98279808E-01 -4.51521917E-01 -2.34420329E-01 -1.13373663E-01 -8.37890341E-02
 -6.76118184E-02 -4.40322172E-02 -1.67236573E-02 -9.44941970E-03  5.64177244E-02
  9.63876702E-02  2.33149082E-01  2.76422212E-01  2.93675756E-01  3.38912641E-01
  3.73258619E-01  4.17702183E-01  4.32559756E-01  4.98079008E-01  5.16628166E-01
  5.79143336E-01  6.22027720E-01  6.39257131E-01  6.69596223E-01  6.77718362E-01
  7.22573710E-01  8.45807026E-01  9.41405390E-01  1.04863441E+00  1.06103855E+00
  1.10262212E+00  1.20066849E+00  1.41614812E+00  1.54125467E+00  1.55765851E+00
  1.59564200E+00  1.69703866E+00  1.74630764E+00  1.79780166E+00  1.81630457E+00
  1.82921742E+00  1.91488231E+00  1.92084409E+00  2.02366911E+00  2.12404989E+00
  2.12936794E+00  2.17834329E+00  2.21269374E+00  2.35244326E+00  2.35586559E+00
  2.39459166E+00  2.46000772E+00  2.56697037E+00  2.61629491E+00  2.63690600E+00
  2.78507524E+00  2.93522027E+00  3.00736773E+00  3.13309487E+00  3.20055370E+00
  3.21575950E+00  3.41031101E+00  3.87802919E+00  4.11145374E+00  4.32338114E+00
Alpha MO coefficients                      R   N=        5625
  1.19424506E-03 -1.19657422E-04 -9.74178232E-05 -1.55246123E-04  0.00000000E+00
  3.43995948E-03  1.44505818E-03  1.25844572E-03  0.00000000E+00 -2.29081721E-04
 -3.46103870E-04 -1.31102444E-04 -1.30302334E-04  0.00000000E+00  0.00000000E+00
 -7.59756795E-05 -1.04540333E-04  1.10001092E-05 -3.23399248E-05  0.00000000E+00
 -1.41616593E-04  3.45591065E-04  2.61605510E-05  6.21939640E-05 -5.54206323E-05
 -1.41616593E-04  3.45591065E-04  2.61605510E-05  6.21939640E-05  5.54206323E-05
  9.91736189E-01  4.98022088E-02  6.39220161E-04 -2.02466300E-04  0.00000000E+00
 -1.44979786E-02 -6.07544836E-04  1.71419095E-03  0.00000000E+00 -9.22601982E-03
 -9.57853963E-03 -9.61281035E-03 -1.76887922E-04  0.00000000E+00  0.00000000E+00
 -3.11916098E-04  1.60576895E-03 -2.05502560E-05  1.29341902E-04  0.00000000E+00
  4.33924511E-02  1.71822496E-03  4.39761450E-04 -9.26766059E-05  0.00000000E+00
  4.61456066E-03 -2.12428040E-03 -2.43057090E-04  0.00000000E+00 -9.67391023E-04
 -7.86288195E-04 -5.85107168E-04  9.81573471E-05  0.00000000E+00  0.00000000E+00
 -1.05439226E-04 -2.63288018E-04 -2.91496965E-05  9.17534037E-05  0.00000000E+00
 -1.28247282E-06  3.39764869E-04 -8.13465565E-05 -6.23882415E-05  0.00000000E+00
 -1.15847613E-04 -1.34231464E-04 -6.47224051E-05  1.54587438E-05  0.00000000E+00
  1.47604741E-05  2.94052496E-04  5.85801674E-05  0.00000000E+00  4.49688281E-05
  1.53139120E-05 -5.70305235E-05  5.65860135E-05  0.00000000E+00  0.00000000E+00
  2.87888305E-05  2.56495204E-04  2.79058627E-05  1.71363515E-06  0.00000000E+00
 -3.15048214E-05  3.39847227E-05 -4.01495377E-05  2.03665158E-06 -1.48288627E-05
 -3.15048214E-05  3.39847227E-05 -4.01495377E-05  2.03665158E-06  1.48288627E-05
 -4.39297462E-02 -2.64216540E-03 -5.29788682E-04  1.03711799E-04  0.00000000E+00
  5.24158461E-03  2.22934058E-03 -4.69362418E-04  0.00000000E+00 -8.70854845E-05
  8.42911601E-05  2.72834452E-04  7.98255613E-05  0.00000000E+00  0.00000000E+00
 -1.20285359E-05  2.13127164E-06  3.91604256E-05 -1.25629364E-04  0.00000000E+00
  9.91598660E-01  5.03847953E-02 -6.39703428E-04  1.45902710E-04  0.00000000E+00
 -1.33358483E-02  1.58392608E-03 -3.59860506E-04  0.00000000E+00 -9.52091515E-03
 -9.91728962E-03 -9.89356139E-03 -1.18035434E-04  0.00000000E+00  0.00000000E+00
 -2.48440639E-04  1.94486943E-03 -5.08430648E-05 -1.17839703E-04  0.00000000E+00
 -2.64724773E-04  1.92750282E-03  1.09522698E-05  1.24058674E-04  0.00000000E+00
  9.92891016E-01  5.00805303E-02  3.27115517E-04  3.69607390E-05  0.00000000E+00
 -1.70409594E-02 -1.01273700E-03 -8.26842511E-04  0.00000000E+00 -9.15629892E-03
 -9.12525250E-03 -8.97504176E-03 -5.74284595E-05  0.00000000E+00  0.00000000E+00
 -3.24669817E-05  2.51549799E-03 -8.65076648E-05  8.94564898E-05  0.00000000E+00
 -1.00143147E-04  2.58329479E-03  4.69431860E-05 -8.47013456E-05  1.61529193E-04
 -1.00143147E-04  2.58329479E-03  4.69431860E-05 -8.47013456E-05 -1.61529193E-04
 -1.41923788E-03 -1.86064858E-04  1.52742045E-04  1.43240760E-04  0.00000000E+00
  3.61348960E-03 -2.48864519E-03 -1.38995940E-03  0.00000000E+00 -3.84117023E-04
 -2.62795105E-04 -1.35712457E-04 -2.32961012E-04  0.00000000E+00  0.00000000E+00
 -1.29314794E-04 -9.48013826E-07  9.19259448E-05 -5.49987218E-06  0.00000000E+00
  1.48252470E-05 -1.89110335E-04  7.54922920E-05  6.82710240E-05  0.00000000E+00
  8.38176540E-04 -8.75680693E-04  1.60172796E-04  0.00000000E+00  5.61553151E-05
  4.19452749E-05 -1.21200042E-04 -7.67832181E-05  0.00000000E+00  0.00000000E+00
 -1.03261486E-04  2.40594329E-04  4.38406820E-05  8.24857894E-07  0.00000000E+00
 -7.62355615E-07  3.94065290E-04 -1.60349551E-05 -3.16203792E-05  0.00000000E+00
 -6.64588149E-02  1.26000649E-01  5.14146051E-02  3.16173421E-02  0.00000000E+00
  8.52155300E-02  6.44878117E-03 -1.86342636E-03  0.00000000E+00  3.05912330E-03
 -1.14334409E-03 -4.91999801E-03  7.15444022E-03  0.00000000E+00  0.00000000E+00
  2.74292208E-02  2.27732405E-03  3.29296987E-03 -1.21476324E-03  0.00000000E+00
  3.34204298E-02  4.39389659E-04  5.42388347E-04  2.65417221E-03 -2.86421289E-03
  3.34204298E-02  4.39389659E-04  5.42388347E-04  2.65417221E-03  2.86421289E-03
 -1.63475015E-01  3.28026166E-01  1.02651492E-01 -4.36816423E-02  0.00000000E+00
  2.22313046E-01  6.51008996E-03 -7.54852209E-03  0.00000000E+00  5.98903575E-03
 -1.06679831E-02 -1.20372250E-02 -1.76634917E-03  0.00000000E+00  0.00000000E+00
  7.51489628E-02  5.26767879E-03  3.56316037E-03 -9.22957639E-03  0.00000000E+00
 -1.48634279E-01  2.98108083E-01 -1.27329389E-01  2.84858510E-02  0.00000000E+00
  2.05737676E-01 -1.08280307E-02  6.16164841E-03  0.00000000E+00  4.85447928E-03
 -1.27099219E-02 -9.08422645E-03 -4.92529470E-03  0.00000000E+00  0.00000000E+00
  6.72938370E-02  4.46380373E-03 -4.16009939E-03  8.12475960E-03  0.00000000E+00
  6.51987421E-02  2.24081359E-04 -7.12507477E-03 -5.23310162E-03  0.00000000E+00
 -1.69944679E-01  3.32567354E-01  1.41653856E-02  1.68990763E-02  0.00000000E+00
  3.02762213E-01  5.85764010E-03  5.52329070E-03  0.00000000E+00 -8.39054610E-03
 -6.16726299E-03 -7.32385412E-03  2.60561997E-03  0.00000000E+00  0.00000000E+00
  1.07779083E-01  2.13180827E-02  1.02044556E-02 -4.61882503E-03  0.00000000E+00
  1.12741835E-01  2.33022545E-02 -1.34498478E-04  7.01182078E-03 -8.91640002E-03
  1.12741835E-01  2.33022545E-02 -1.34498478E-04  7.01182078E-03  8.91640002E-03
 -2.78132459E-02  5.62925659E-02 -2.10090165E-01 -5.50334031E-02  0.00000000E+00
  6.34989945E-02 -2.70703025E-02 -1.66618236E-02  0.00000000E+00 -5.99853253E-03
  7.17631008E-03 -2.02663299E-03  1.26421352E-02  0.00000000E+00  0.00000000E+00
  2.07662577E-02  8.70610273E-03 -2.35729101E-03 -2.24207904E-03  0.00000000E+00
  1.11023564E-01 -2.28174516E-01 -3.29990215E-03 -2.86553297E-02  0.00000000E+00
 -2.15243740E-01  2.84387883E-03 -7.00310905E-03  0.00000000E+00  6.80869281E-03
  4.66700103E-03  5.85066398E-03  2.10325321E-03  0.00000000E+00  0.00000000E+00
 -6.78174074E-02 -1.20383120E-02  1.87333775E-03 -7.08965148E-03  0.00000000E+00
 -8.54964569E-02 -1.83205775E-02  6.53006212E-03  5.69192182E-03  0.00000000E+00
  7.14212273E-02 -1.42447075E-01  5.35289305E-02  1.03957551E-01  0.00000000E+00
 -1.62949367E-01  5.31649644E-03  2.63089802E-02  0.00000000E+00  6.73800220E-03
  8.03914248E-03 -1.98450303E-03  7.73551109E-03  0.00000000E+00  0.00000000E+00
 -5.34280393E-02 -1.70101786E-02 -3.40496763E-03  3.99960809E-03  0.00000000E+00
 -8.59991024E-02 -3.27133843E-02  5.59818339E-04 -2.87325865E-03  5.72582925E-03
 -8.59991024E-02 -3.27133843E-02  5.59818339E-04 -2.87325865E-03 -5.72582925E-03
 -1.18048493E-01  2.52913239E-01 -2.02499440E-02  1.70405544E-01  0.00000000E+00
  2.86597238E-01 -2.37423833E-03  5.54037006E-02  0.00000000E+00 -1.31689451E-02
 -2.42271268E-03 -6.13172300E-03 -1.10553682E-03  0.00000000E+00  0.00000000E+00
  1.73836250E-01  6.04100096E-02  3.69178472E-03 -1.15227091E-02  0.00000000E+00
  9.20801395E-02 -1.94037426E-01 -1.92365857E-01  1.31793300E-01  0.00000000E+00
 -2.36313751E-01 -3.75148873E-02  3.91042675E-02  0.00000000E+00  1.45827391E-02
 -4.19596975E-03  4.01895120E-03 -9.21247025E-03  0.00000000E+00  0.00000000E+00
 -1.59894541E-01 -6.21056778E-02  2.01252312E-03 -1.01689745E-02  0.00000000E+00
 -1.00354787E-01 -3.87790172E-02  2.90490756E-03  7.28261358E-03  0.00000000E+00
 -2.40480717E-02  4.77433802E-02 -1.48361877E-01  2.30939616E-02  0.00000000E+00
  7.85757488E-02 -5.12676420E-02  2.39762246E-02  0.00000000E+00 -6.91401541E-03
  3.70406284E-03 -8.48320875E-04 -5.90169559E-03  0.00000000E+00  0.00000000E+00
  9.03181948E-02  3.97939290E-02  3.87046889E-03 -1.88178626E-03  0.00000000E+00
  1.23712036E-02  6.34591272E-03 -2.92285776E-03  7.04407385E-04 -1.02143955E-03
  1.23712036E-02  6.34591272E-03 -2.92285776E-03  7.04407385E-04  1.02143955E-03
  2.31219966E-02 -5.26912994E-02 -1.29469981E-01  2.95326253E-01  0.00000000E+00
 -4.95346574E-02 -2.94501640E-02  1.13261977E-01  0.00000000E+00  2.17951802E-03
  6.90821202E-03  3.97089283E-04  8.32644929E-03  0.00000000E+00  0.00000000E+00
  1.39845861E-01  7.57790416E-02  7.98265590E-04 -4.53696363E-03  0.00000000E+00
 -1.86618494E-02  3.76807226E-02  3.13147669E-01  2.32689173E-01  0.00000000E+00
  7.53845367E-02  9.54787828E-02  1.02142080E-01  0.00000000E+00 -8.27420477E-03
  9.93103025E-03 -9.82126690E-04  5.89460509E-03  0.00000000E+00  0.00000000E+00
 -4.13844224E-02 -1.32053907E-02  6.40122073E-03 -1.36172235E-04  0.00000000E+00
  2.14840930E-01  1.06917540E-01 -6.26540382E-03 -6.31364978E-03  0.00000000E+00
 -2.48058172E-02  4.63775026E-02 -1.07679859E-01 -2.28801366E-01  0.00000000E+00
  8.36156425E-02 -2.96784357E-02 -8.16502476E-02  0.00000000E+00 -5.15926521E-03
 -5.81535307E-03  8.61206999E-03 -8.47618329E-03  0.00000000E+00  0.00000000E+00
  1.68901963E-02  5.42431256E-03 -8.86175570E-04 -4.87506787E-03  0.00000000E+00
  9.99324188E-02  5.38888522E-02 -2.16084811E-03  3.46906205E-04 -5.36442384E-03
  9.99324188E-02  5.38888522E-02 -2.16084811E-03  3.46906205E-04  5.36442384E-03
  2.61637406E-02 -5.81665535E-02  3.47770883E-01 -8.42654686E-03  0.00000000E+00
 -9.40371140E-02  1.15045040E-01 -7.63873097E-03  0.00000000E+00  1.09008785E-02
 -1.17219500E-02  1.26572491E-03  2.64982629E-03  0.00000000E+00  0.00000000E+00
 -8.75115163E-02 -5.30417322E-02  5.07408272E-03  4.00269436E-03  0.00000000E+00
 -2.14315847E-03  9.55126977E-03 -2.22862907E-01  3.09922646E-01  0.00000000E+00
 -3.20066420E-02 -5.58064875E-02  1.31792653E-01  0.00000000E+00  7.94627794E-03
 -1.48083138E-02  6.18274672E-04 -3.00609701E-04  0.00000000E+00  0.00000000E+00
 -1.99947507E-01 -1.13521138E-01  1.38227065E-04 -6.72381307E-03  0.00000000E+00
  3.01128932E-02  4.62866826E-03 -5.87253561E-03  2.73500179E-03  0.00000000E+00
  0.00000000E+00  0.00000000E+00  0.00000000E+00  0.00000000E+00  3.85558901E-01
  0.00000000E+00  0.00000000E+00  0.00000000E+00  1.64624576E-01  0.00000000E+00
  0.00000000E+00  0.00000000E+00  0.00000000E+00  9.24939868E-03 -1.34983363E-02
  0.00000000E+00  0.00000000E+00  0.00000000E+00  0.00000000E+00  6.36871080E-03
  1.93028000E-01  1.30467750E-01  1.20148356E-03  8.19491980E-03 -2.05033482E-03
 -1.93028000E-01 -1.30467750E-01 -1.20148356E-03 -8.19491980E-03 -2.05033482E-03
  0.00000000E+00  0.00000000E+00  0.00000000E+00  0.00000000E+00  2.68089253E-01
  0.00000000E+00  0.00000000E+00  0.00000000E+00  1.41298035E-01  0.00000000E+00
  0.00000000E+00  0.00000000E+00  0.00000000E+00  3.97307374E-03 -1.15824619E-02
  0.00000000E+00  0.00000000E+00  0.00000000E+00  0.00000000E+00  4.46365858E-03
  0.00000000E+00  0.00000000E+00  0.00000000E+00  0.00000000E+00  1.85877203E-01
  0.00000000E+00  0.00000000E+00  0.00000000E+00  9.46757198E-02  0.00000000E+00
  0.00000000E+00  0.00000000E+00  0.00000000E+00 -1.39425451E-02  2.42173180E-03
  0.00000000E+00  0.00000000E+00  0.00000000E+00  0.00000000E+00  3.37770968E-03
  0.00000000E+00  0.00000000E+00  0.00000000E+00  0.00000000E+00  3.02671513E-03
 -3.79498434E-03  1.27581254E-02  3.73544773E-01  5.46084396E-03  0.00000000E+00
  3.42315155E-03  1.55873064E-01 -5.22242064E-03  0.00000000E+00 -4.08343011E-03
  1.40664110E-04  1.55246946E-03  1.64028110E-02  0.00000000E+00  0.00000000E+00