Title Card Required                                                     
Freq      RB3LYP                                                      6-31G(d,p)          
Number of atoms                            I                9
Info1-9                                    I   N=           9
          27          16        1002           0           0         100
           6          18        -502
Charge                                     I                0
Multiplicity                               I                1
Number of electrons                        I               24
Number of alpha electrons                  I               12
Number of beta electrons                   I               12
Number of basis functions                  I               75
Number of independent functions            I               75
Number of point charges in /Mol/           I                0
Number of translation vectors              I                0
Atomic numbers                             I   N=           9
           6           1           1           1           6           1
           6           1           1
Nuclear charges                            R   N=           9
  6.00000000E+00  1.00000000E+00  1.00000000E+00  1.00000000E+00  6.00000000E+00
  1.00000000E+00  6.00000000E+00  1.00000000E+00  1.00000000E+00
Current cartesian coordinates              R   N=          27
 -2.15806461E+00 -9.63855352E-01  0.00000000E+00 -3.99045941E+00 -1.00984104E-02
  0.00000000E+00 -2.09652360E+00 -2.19255027E+00  1.66598614E+00 -2.09652360E+00
 -2.19255027E+00 -1.66598614E+00  5.55111512E-17  9.07044099E-01  0.00000000E+00
 -5.11480177E-01  2.90133779E+00  0.00000000E+00  2.44321969E+00  2.94884211E-01
  0.00000000E+00  3.07254802E+00 -1.66267896E+00  0.00000000E+00  3.91150829E+00
  1.72810238E+00  0.00000000E+00
Force Field                                I                0
Int Atom Types                             I   N=           9
           0           0           0           0           0           0
           0           0           0
MM charges                                 R   N=           9
  0.00000000E+00  0.00000000E+00  0.00000000E+00  0.00000000E+00  0.00000000E+00
  0.00000000E+00  0.00000000E+00  0.00000000E+00  0.00000000E+00
Integer atomic weights                     I   N=           9
          12           1           1           1          12           1
          12           1           1
Real atomic weights                        R   N=           9
  1.20000000E+01  1.00782504E+00  1.00782504E+00  1.00782504E+00  1.20000000E+01
  1.00782504E+00  1.20000000E+01  1.00782504E+00  1.00782504E+00
Atom fragment info                         I   N=           9
           0           0           0           0           0           0
           0           0           0
Atom residue num                           I   N=           9
           0           0           0           0           0           0
           0           0           0
Nuclear spins                              I   N=           9
           0           1           1           1           0           1
           0           1           1
Nuclear ZEff                               R   N=           9
 -3.60000000E+00 -1.00000000E+00 -1.00000000E+00 -1.00000000E+00 -3.60000000E+00
 -1.00000000E+00 -3.60000000E+00 -1.00000000E+00 -1.00000000E+00
Nuclear ZNuc                               R   N=           9
  6.00000000E+00  1.00000000E+00  1.00000000E+00  1.00000000E+00  6.00000000E+00
  1.00000000E+00  6.00000000E+00  1.00000000E+00  1.00000000E+00
Nuclear QMom                               R   N=           9
  0.00000000E+00  0.00000000E+00  0.00000000E+00  0.00000000E+00  0.00000000E+00
  0.00000000E+00  0.00000000E+00  0.00000000E+00  0.00000000E+00
Nuclear GFac                               R   N=           9
  0.00000000E+00  2.79284600E+00  2.79284600E+00  2.79284600E+00  0.00000000E+00
  2.79284600E+00  0.00000000E+00  2.79284600E+00  2.79284600E+00
MicOpt                                     I   N=           9
          -1          -1          -1          -1          -1          -1
          -1          -1          -1
Number of contracted shells                I               30
Number of primitive shells                 I               63
Pure/Cartesian d shells                    I                1
Pure/Cartesian f shells                    I                0
Highest angular momentum                   I                2
Largest degree of contraction              I                6
Shell types                                I   N=          30
           0          -1          -1           2           0           0
           1           0           0           1           0           0
           1           0          -1          -1           2           0
           0           1           0          -1          -1           2
           0           0           1           0           0           1
Number of primitives per shell             I   N=          30
           6           3           1           1           3           1
           1           3           1           1           3           1
           1           6           3           1           1           3
           1           1           6           3           1           1
           3           1           1           3           1           1
Shell to atom map                          I   N=          30
           1           1           1           1           2           2
           2           3           3           3           4           4
           4           5           5           5           5           6
           6           6           7           7           7           7
           8           8           8           9           9           9
Primitive exponents                        R   N=          63
  3.04752488E+03  4.57369518E+02  1.03948685E+02  2.92101553E+01  9.28666296E+00
  3.16392696E+00  7.86827235E+00  1.88128854E+00  5.44249258E-01  1.68714478E-01
  8.00000000E-01  1.87311370E+01  2.82539436E+00  6.40121692E-01  1.61277759E-01
  1.10000000E+00  1.87311370E+01  2.82539436E+00  6.40121692E-01  1.61277759E-01
  1.10000000E+00  1.87311370E+01  2.82539436E+00  6.40121692E-01  1.61277759E-01
  1.10000000E+00  3.04752488E+03  4.57369518E+02  1.03948685E+02  2.92101553E+01
  9.28666296E+00  3.16392696E+00  7.86827235E+00  1.88128854E+00  5.44249258E-01
  1.68714478E-01  8.00000000E-01  1.87311370E+01  2.82539436E+00  6.40121692E-01
  1.61277759E-01  1.10000000E+00  3.04752488E+03  4.57369518E+02  1.03948685E+02
  2.92101553E+01  9.28666296E+00  3.16392696E+00  7.86827235E+00  1.88128854E+00
  5.44249258E-01  1.68714478E-01  8.00000000E-01  1.87311370E+01  2.82539436E+00
  6.40121692E-01  1.61277759E-01  1.10000000E+00  1.87311370E+01  2.82539436E+00
  6.40121692E-01  1.61277759E-01  1.10000000E+00
Contraction coefficients                   R   N=          63
  1.83473713E-03  1.40373228E-02  6.88426223E-02  2.32184443E-01  4.67941348E-01
  3.62311985E-01 -1.19332420E-01 -1.60854152E-01  1.14345644E+00  1.00000000E+00
  1.00000000E+00  3.34946043E-02  2.34726953E-01  8.13757326E-01  1.00000000E+00
  1.00000000E+00  3.34946043E-02  2.34726953E-01  8.13757326E-01  1.00000000E+00
  1.00000000E+00  3.34946043E-02  2.34726953E-01  8.13757326E-01  1.00000000E+00
  1.00000000E+00  1.83473713E-03  1.40373228E-02  6.88426223E-02  2.32184443E-01
  4.67941348E-01  3.62311985E-01 -1.19332420E-01 -1.60854152E-01  1.14345644E+00
  1.00000000E+00  1.00000000E+00  3.34946043E-02  2.34726953E-01  8.13757326E-01
  1.00000000E+00  1.00000000E+00  1.83473713E-03  1.40373228E-02  6.88426223E-02
  2.32184443E-01  4.67941348E-01  3.62311985E-01 -1.19332420E-01 -1.60854152E-01
  1.14345644E+00  1.00000000E+00  1.00000000E+00  3.34946043E-02  2.34726953E-01
  8.13757326E-01  1.00000000E+00  1.00000000E+00  3.34946043E-02  2.34726953E-01
  8.13757326E-01  1.00000000E+00  1.00000000E+00
P(S=P) Contraction coefficients            R   N=          63
  0.00000000E+00  0.00000000E+00  0.00000000E+00  0.00000000E+00  0.00000000E+00
  0.00000000E+00  6.89990666E-02  3.16423961E-01  7.44308291E-01  1.00000000E+00
  0.00000000E+00  0.00000000E+00  0.00000000E+00  0.00000000E+00  0.00000000E+00
  0.00000000E+00  0.00000000E+00  0.00000000E+00  0.00000000E+00  0.00000000E+00
  0.00000000E+00  0.00000000E+00  0.00000000E+00  0.00000000E+00  0.00000000E+00
  0.00000000E+00  0.00000000E+00  0.00000000E+00  0.00000000E+00  0.00000000E+00
  0.00000000E+00  0.00000000E+00  6.89990666E-02  3.16423961E-01  7.44308291E-01
  1.00000000E+00  0.00000000E+00  0.00000000E+00  0.00000000E+00  0.00000000E+00
  0.00000000E+00  0.00000000E+00  0.00000000E+00  0.00000000E+00  0.00000000E+00
  0.00000000E+00  0.00000000E+00  0.00000000E+00  6.89990666E-02  3.16423961E-01
  7.44308291E-01  1.00000000E+00  0.00000000E+00  0.00000000E+00  0.00000000E+00
  0.00000000E+00  0.00000000E+00  0.00000000E+00  0.00000000E+00  0.00000000E+00
  0.00000000E+00  0.00000000E+00  0.00000000E+00
Coordinates of each shell                  R   N=          90
 -2.15806461E+00 -9.63855352E-01  0.00000000E+00 -2.15806461E+00 -9.63855352E-01
  0.00000000E+00 -2.15806461E+00 -9.63855352E-01  0.00000000E+00 -2.15806461E+00
 -9.63855352E-01  0.00000000E+00 -3.99045941E+00 -1.00984104E-02  0.00000000E+00
 -3.99045941E+00 -1.00984104E-02  0.00000000E+00 -3.99045941E+00 -1.00984104E-02
  0.00000000E+00 -2.09652360E+00 -2.19255027E+00  1.66598614E+00 -2.09652360E+00
 -2.19255027E+00  1.66598614E+00 -2.09652360E+00 -2.19255027E+00  1.66598614E+00
 -2.09652360E+00 -2.19255027E+00 -1.66598614E+00 -2.09652360E+00 -2.19255027E+00
 -1.66598614E+00 -2.09652360E+00 -2.19255027E+00 -1.66598614E+00  5.55111512E-17
  9.07044099E-01  0.00000000E+00  5.55111512E-17  9.07044099E-01  0.00000000E+00
  5.55111512E-17  9.07044099E-01  0.00000000E+00  5.55111512E-17  9.07044099E-01
  0.00000000E+00 -5.11480177E-01  2.90133779E+00  0.00000000E+00 -5.11480177E-01
  2.90133779E+00  0.00000000E+00 -5.11480177E-01  2.90133779E+00  0.00000000E+00
  2.44321969E+00  2.94884211E-01  0.00000000E+00  2.44321969E+00  2.94884211E-01
  0.00000000E+00  2.44321969E+00  2.94884211E-01  0.00000000E+00  2.44321969E+00
  2.94884211E-01  0.00000000E+00  3.07254802E+00 -1.66267896E+00  0.00000000E+00
  3.07254802E+00 -1.66267896E+00  0.00000000E+00  3.07254802E+00 -1.66267896E+00
  0.00000000E+00  3.91150829E+00  1.72810238E+00  0.00000000E+00  3.91150829E+00
  1.72810238E+00  0.00000000E+00  3.91150829E+00  1.72810238E+00  0.00000000E+00
Constraint Structure                       R   N=          27
 -2.15806461E+00 -9.63855352E-01  0.00000000E+00 -3.99045941E+00 -1.00984104E-02
  0.00000000E+00 -2.09652360E+00 -2.19255027E+00  1.66598614E+00 -2.09652360E+00
 -2.19255027E+00 -1.66598614E+00  5.55111512E-17  9.07044099E-01  0.00000000E+00
 -5.11480177E-01  2.90133779E+00  0.00000000E+00  2.44321969E+00  2.94884211E-01
  0.00000000E+00  3.07254802E+00 -1.66267896E+00  0.00000000E+00  3.91150829E+00
  1.72810238E+00  0.00000000E+00
Num ILSW                                   I              100
ILSW                                       I   N=         100
           0           1           0           0           2           0
           0           0           0           0         402          -1
           0           0           0           0           2           0
           0           0           1           0           1           0
           1           0           0           0           0           0
           0           0      100000           0          -1           0
           0           0           0           0           0           0
           0           0           0           1           0           0
           0           0           1           0           0           0
           0           0           4          41           0           0
           0           0           5           0           0           0
           0           0           0           0           0           0
           0           0           0           0           0           0
           0           0           0           0           0           0
           0           0           0           0           0           0
           0           0           0           0           0           0
           0           0           0           0
Num RLSW                                   I               41
RLSW                                       R   N=          41
  8.00000000E-01  7.20000000E-01  1.00000000E+00  8.10000000E-01  2.00000000E-01
  0.00000000E+00  0.00000000E+00  1.00000000E+00  0.00000000E+00  0.00000000E+00
  0.00000000E+00  0.00000000E+00  1.00000000E+00  0.00000000E+00  0.00000000E+00
  0.00000000E+00  0.00000000E+00  1.00000000E+00  0.00000000E+00  0.00000000E+00
  0.00000000E+00  0.00000000E+00  1.00000000E+00  0.00000000E+00  0.00000000E+00
  0.00000000E+00  0.00000000E+00  1.00000000E+00  0.00000000E+00  0.00000000E+00
  0.00000000E+00  0.00000000E+00  1.00000000E+00  0.00000000E+00  0.00000000E+00
  0.00000000E+00  0.00000000E+00  0.00000000E+00  1.00000000E+00  1.00000000E+00
  0.00000000E+00
MxBond                                     I                4
NBond                                      I   N=           9
           4           1           1           1           3           1
           3           1           1
IBond                                      I   N=          36
           2           3           4           5           1           0
           0           0           1           0           0           0
           1           0           0           0           1           6
           7           0           5           0           0           0
           5           8           9           0           7           0
           0           0           7           0           0           0
RBond                                      R   N=          36
  1.00000000E+00  1.00000000E+00  1.00000000E+00  1.00000000E+00  1.00000000E+00
  0.00000000E+00  0.00000000E+00  0.00000000E+00  1.00000000E+00  0.00000000E+00
  0.00000000E+00  0.00000000E+00  1.00000000E+00  0.00000000E+00  0.00000000E+00
  0.00000000E+00  1.00000000E+00  1.00000000E+00  2.00000000E+00  0.00000000E+00
  1.00000000E+00  0.00000000E+00  0.00000000E+00  0.00000000E+00  2.00000000E+00
  1.00000000E+00  1.00000000E+00  0.00000000E+00  1.00000000E+00  0.00000000E+00
  0.00000000E+00  0.00000000E+00  1.00000000E+00  0.00000000E+00  0.00000000E+00
  0.00000000E+00
Virial Ratio                               R      2.010425914946720E+00
SCF Energy                                 R     -1.179132673865533E+02
Total Energy                               R     -1.179132673865533E+02
RMS Force                                  R      1.321991756359824E-05
RMS Density                                R      1.217547056342200E-09
External E-field                           R   N=          35
  0.00000000E+00  0.00000000E+00  0.00000000E+00  0.00000000E+00  0.00000000E+00
  0.00000000E+00  0.00000000E+00  0.00000000E+00  0.00000000E+00  0.00000000E+00
  0.00000000E+00  0.00000000E+00  0.00000000E+00  0.00000000E+00  0.00000000E+00
  0.00000000E+00  0.00000000E+00  0.00000000E+00  0.00000000E+00  0.00000000E+00
  0.00000000E+00  0.00000000E+00  0.00000000E+00  0.00000000E+00  0.00000000E+00
  0.00000000E+00  0.00000000E+00  0.00000000E+00  0.00000000E+00  0.00000000E+00
  0.00000000E+00  0.00000000E+00  0.00000000E+00  0.00000000E+00  0.00000000E+00
IOpCl                                      I                0
IROHF                                      I                0
Alpha Orbital Energies                     R   N=          75
 -1.01867917E+01 -1.01797865E+01 -1.01720486E+01 -7.77763541E-01 -6.79822726E-01
 -5.48652405E-01 -4.58884769E-01 -4.16167794E-01 -4.07593698E-01 -3.66856915E-01
 -3.38771845E-01 -2.48438461E-01  2.03108604E-02  1.10103566E-01  1.32439673E-01
  1.51637566E-01  1.84990832E-01  1.91014121E-01  2.01010175E-01  2.88366450E-01
  3.47693954E-01  4.91984566E-01  5.23756676E-01  5.46101031E-01  5.83140796E-01
  6.10639348E-01  6.77735492E-01  6.81220301E-01  7.43015141E-01  7.74657647E-01
  8.37395275E-01  8.54896544E-01  8.68940974E-01  8.93318703E-01  9.23092402E-01
  9.38323709E-01  1.11343585E+00  1.19982615E+00  1.29209571E+00  1.30882647E+00
  1.39555125E+00  1.48091960E+00  1.65714397E+00  1.81387160E+00  1.82091000E+00
  1.87418923E+00  1.97747023E+00  2.01389848E+00  2.04891558E+00  2.05602778E+00
  2.06343653E+00  2.15310929E+00  2.17738804E+00  2.27692401E+00  2.37862750E+00
  2.38501382E+00  2.43691517E+00  2.48554620E+00  2.62033628E+00  2.63190822E+00
  2.64474342E+00  2.70410648E+00  2.83368241E+00  2.86716547E+00  2.87086391E+00
  3.05435303E+00  3.17089299E+00  3.27417623E+00  3.39138466E+00  3.43191272E+00
  3.46820612E+00  3.68910369E+00  4.17829812E+00  4.38392341E+00  4.59022466E+00
Alpha MO coefficients                      R   N=        5625
  1.69222527E-02  7.35972776E-04 -1.43369613E-04 -2.12923264E-04  0.00000000E+00
  3.20544825E-03  1.34161016E-03  1.34028267E-03  0.00000000E+00 -4.55512764E-04
 -5.47060124E-04 -2.72809626E-04 -2.09141353E-04  0.00000000E+00  0.00000000E+00
 -9.47672688E-05 -8.63984772E-05  1.72591184E-05 -2.25899244E-05  0.00000000E+00
 -1.40080972E-04  4.19603262E-04  3.23201597E-05  5.58467299E-05 -5.67642965E-05
 -1.40080972E-04  4.19603262E-04  3.23201597E-05  5.58467299E-05  5.67642965E-05
  9.92211152E-01  4.90762399E-02 -1.04704793E-04 -3.05153622E-05  0.00000000E+00
 -1.44158761E-02 -2.42945046E-04  1.58013264E-03  0.00000000E+00 -8.99044908E-03
 -9.12939598E-03 -9.52943096E-03 -1.35947346E-04  0.00000000E+00  0.00000000E+00
 -4.38953176E-04  1.70994700E-03 -5.32318874E-05  2.41560288E-04  0.00000000E+00
  2.93933414E-02  9.22063033E-04  3.53998037E-04 -6.13970387E-05  0.00000000E+00
  4.52306890E-03 -2.12753537E-03 -2.86457355E-04  0.00000000E+00 -6.14029464E-04
 -6.00217717E-04 -4.21990194E-04  3.58766548E-05  0.00000000E+00  0.00000000E+00
 -1.12055509E-04 -2.99955253E-04 -2.85491437E-05  7.74296850E-05  0.00000000E+00
  1.04964590E-05  3.33070016E-04 -7.78826009E-05 -5.33077361E-05  0.00000000E+00
  9.92795700E-01  4.98180243E-02 -2.60420836E-05 -3.51981754E-05  0.00000000E+00
 -1.73111358E-02 -9.23971927E-04 -8.44298275E-04  0.00000000E+00 -8.99601261E-03
 -8.99162674E-03 -8.90604258E-03 -1.05034419E-04  0.00000000E+00  0.00000000E+00
 -1.07858927E-04  2.59654638E-03 -1.59028586E-04  1.32268066E-04  0.00000000E+00
 -1.04558204E-04  2.60762427E-03  5.14836113E-05 -8.87178651E-05  1.78018901E-04
 -1.04558204E-04  2.60762427E-03  5.14836113E-05 -8.87178651E-05 -1.78018901E-04
 -1.71132570E-02 -1.00979190E-03  1.40482722E-04  1.33179745E-04  0.00000000E+00
  3.94086386E-03 -2.53043322E-03 -1.54229148E-03  0.00000000E+00 -2.01010993E-04
 -8.93007529E-05  1.07473438E-05 -1.90072051E-04  0.00000000E+00  0.00000000E+00
 -1.14631919E-04  6.64899939E-06  9.52381533E-05 -9.34419192E-06  0.00000000E+00
 -1.28070114E-03 -2.29642187E-04  6.72638950E-05  5.83310201E-05  0.00000000E+00
  7.12301636E-04 -7.66515194E-04  2.72761165E-04  0.00000000E+00  7.10469735E-05
  5.72490502E-05 -9.82641111E-05 -7.15136041E-05  0.00000000E+00  0.00000000E+00
 -8.25779922E-05  2.84625509E-04  3.97514087E-05  1.94817556E-06  0.00000000E+00
 -1.18730255E-05  3.33857894E-04 -1.46020257E-05 -2.84420149E-05  0.00000000E+00
  7.39841111E-04 -6.87212963E-05 -5.61569446E-05  7.39299997E-06  0.00000000E+00
 -8.50113798E-05  2.08957122E-04  9.55356264E-05  0.00000000E+00  4.47172270E-05
  8.05000322E-06 -5.59992862E-05  4.72696710E-05  0.00000000E+00  0.00000000E+00
  2.04974432E-05  2.30291361E-04  2.81979608E-05  7.86550671E-06  0.00000000E+00
 -2.24990277E-05  6.07328429E-05 -3.47298066E-05 -1.63189271E-07 -1.71528418E-05
 -2.24990277E-05  6.07328429E-05 -3.47298066E-05 -1.63189271E-07  1.71528418E-05
 -2.99188956E-02 -1.97877268E-03 -4.13796271E-04  7.80969096E-05  0.00000000E+00
  5.05776884E-03  2.23993088E-03 -5.55209133E-04  0.00000000E+00 -6.47805234E-05
 -5.97493649E-05  1.52458862E-04  3.22313086E-05  0.00000000E+00  0.00000000E+00
  1.46471540E-06  5.34806997E-05  4.20417958E-05 -1.26839441E-04  0.00000000E+00
  9.92296759E-01  4.91552644E-02  6.73550698E-05 -2.66487805E-05  0.00000000E+00
 -1.33836636E-02  1.32667485E-03 -2.84799288E-04  0.00000000E+00 -9.03023666E-03
 -9.20526394E-03 -9.74024133E-03 -4.89172383E-05  0.00000000E+00  0.00000000E+00
 -4.13929290E-04  2.03237632E-03 -3.89380917E-06 -2.53238428E-04  0.00000000E+00
 -4.31095429E-04  2.00601687E-03  1.15504352E-04  2.23661986E-04  0.00000000E+00
 -1.14909984E-01  2.19050464E-01  4.90184103E-02  3.53467001E-02  0.00000000E+00
  1.76814979E-01  1.22270190E-02  1.61399258E-03  0.00000000E+00  1.53723219E-04
 -3.05398731E-03 -7.95520137E-03  6.91121331E-03  0.00000000E+00  0.00000000E+00
  6.25838265E-02  1.63707829E-02  6.22511924E-03 -2.63186495E-03  0.00000000E+00
  6.46571016E-02  1.26591219E-02  2.85438106E-04  4.38333447E-03 -5.30578014E-03
  6.46571016E-02  1.26591219E-02  2.85438106E-04  4.38333447E-03  5.30578014E-03
 -1.54830648E-01  3.00291251E-01  3.25950233E-02 -4.77086759E-02  0.00000000E+00
  2.03610535E-01 -5.50363708E-03 -3.58100343E-03  0.00000000E+00  5.18625468E-03
 -4.85525660E-03 -1.60759632E-02  2.40204736E-03  0.00000000E+00  0.00000000E+00
  8.03493602E-02  1.88480983E-02  2.62925910E-03 -8.62810217E-03  0.00000000E+00
 -1.17612195E-01  2.25873714E-01 -9.15169930E-02  1.56435362E-02  0.00000000E+00
  1.61493182E-01 -8.32114144E-03  3.32551434E-03  0.00000000E+00  5.22005290E-03
 -7.06039701E-03 -1.23543169E-02 -2.67603362E-03  0.00000000E+00  0.00000000E+00
  6.07160376E-02  1.56505519E-02 -3.40271580E-03  6.24904636E-03  0.00000000E+00
  5.63774699E-02  1.13224445E-02 -5.30024566E-03 -3.87757593E-03  0.00000000E+00
 -1.51808607E-01  2.99009430E-01 -3.23112787E-02 -1.00730118E-02  0.00000000E+00
  2.68813634E-01 -1.31445691E-02 -2.25498922E-03  0.00000000E+00 -9.03777971E-03
 -5.84183478E-03 -6.14465645E-03 -1.85068779E-03  0.00000000E+00  0.00000000E+00
  1.16774600E-01  4.00202810E-02  9.25650578E-03 -4.83230335E-03  0.00000000E+00
  1.08894269E-01  3.66878649E-02 -8.46660149E-04  5.73687393E-03 -8.17994695E-03
  1.08894269E-01  3.66878649E-02 -8.46660149E-04  5.73687393E-03  8.17994695E-03
  3.31559475E-02 -6.60699571E-02 -1.87767169E-01 -4.19318542E-02  0.00000000E+00
 -5.02894639E-02 -3.37501325E-02 -1.19218662E-02  0.00000000E+00 -2.39231989E-03
  7.06496736E-03  3.08938677E-03  1.17307379E-02  0.00000000E+00  0.00000000E+00
 -2.09387265E-02 -6.02911903E-03 -3.22442783E-03  1.51950969E-03  0.00000000E+00
  1.33617007E-01 -2.60942497E-01  2.61197948E-02 -2.74223624E-02  0.00000000E+00
 -2.11212747E-01 -3.94389943E-03 -1.78837673E-03  0.00000000E+00  2.20731552E-03
  4.44644290E-03  1.32567340E-02  2.60743762E-03  0.00000000E+00  0.00000000E+00
 -8.29655892E-02 -2.59440790E-02  2.58871380E-03 -7.95524532E-03  0.00000000E+00
 -9.69778117E-02 -3.54587456E-02  7.27348985E-03  5.94080437E-03  0.00000000E+00
  5.01435272E-02 -1.01503262E-01  7.86778427E-02  1.36804018E-01  0.00000000E+00
 -1.09472069E-01  2.35443841E-02  4.52394688E-02  0.00000000E+00  5.93759986E-03
  7.29264640E-03 -3.66410765E-03  9.04156819E-03  0.00000000E+00  0.00000000E+00
 -4.54759877E-02 -2.26959754E-02 -1.84055826E-03  4.25108058E-03  0.00000000E+00
 -8.19331592E-02 -4.65142545E-02  1.02856646E-03 -1.45769004E-03  4.92781243E-03
 -8.19331592E-02 -4.65142545E-02  1.02856646E-03 -1.45769004E-03 -4.92781243E-03
 -1.21986357E-01  2.51928958E-01 -7.58312873E-02  1.36888280E-01  0.00000000E+00
  2.30356280E-01 -3.81056857E-02  4.59834635E-02  0.00000000E+00 -1.15817241E-02
  2.90462531E-04 -1.01819366E-02 -1.11178632E-03  0.00000000E+00  0.00000000E+00
  1.82277186E-01  1.00632274E-01  2.39785555E-03 -1.13553662E-02  0.00000000E+00
  9.33324680E-02 -1.89433308E-01 -1.69420217E-01  9.62583711E-02  0.00000000E+00
 -1.75106038E-01 -5.63030595E-02  3.09366786E-02  0.00000000E+00  1.09478370E-02
 -4.21138327E-03  8.08511658E-03 -6.70450313E-03  0.00000000E+00  0.00000000E+00
 -1.53901530E-01 -8.93514084E-02  1.58241583E-03 -9.47905172E-03  0.00000000E+00
 -1.11217450E-01 -6.08349025E-02  3.22043972E-03  7.32054203E-03  0.00000000E+00
 -1.12416795E-02  2.34855876E-02 -2.31041449E-01  5.08505716E-02  0.00000000E+00
  2.20596259E-02 -1.03900873E-01  3.18347547E-02  0.00000000E+00 -2.48478198E-03
  3.11268419E-03 -2.46940523E-03 -9.72233483E-03  0.00000000E+00  0.00000000E+00
  1.43657772E-01  1.02863980E-01  4.21425914E-03 -2.27451939E-03  0.00000000E+00
 -1.03487975E-02 -7.55290436E-03 -4.30094198E-03  3.56859910E-04  1.68595745E-04
 -1.03487975E-02 -7.55290436E-03 -4.30094198E-03  3.56859910E-04 -1.68595745E-04
  3.09077043E-02 -6.73540521E-02 -6.93323650E-02  2.73695053E-01  0.00000000E+00
 -5.24559443E-02 -1.22599317E-02  8.16276120E-02  0.00000000E+00  5.21119574E-03
  3.03810628E-03  1.56246392E-03  2.22977531E-03  0.00000000E+00  0.00000000E+00
  1.28714667E-01  1.12199845E-01  7.59782635E-04 -3.53087771E-03  0.00000000E+00
 -1.43242931E-02  3.04682283E-02  2.42095247E-01  2.08286046E-01  0.00000000E+00
  3.23134571E-02  8.49191234E-02  7.84202443E-02  0.00000000E+00 -4.60938218E-03
  6.02644373E-03 -1.04779115E-03  5.46057843E-03  0.00000000E+00  0.00000000E+00
 -5.31662166E-02 -4.03163302E-02  6.12589914E-03 -1.55045292E-04  0.00000000E+00
  1.96610329E-01  1.47152597E-01 -5.26606017E-03 -4.95680010E-03  0.00000000E+00
 -4.80721196E-03  5.78954525E-03 -3.51399003E-02 -2.93688481E-01  0.00000000E+00
  2.08329524E-02 -1.45800439E-02 -1.27814818E-01  0.00000000E+00 -7.54654483E-03
 -3.12501136E-03  1.18060834E-02 -3.21987390E-03  0.00000000E+00  0.00000000E+00
 -6.17715614E-02 -5.79620224E-02 -3.99847615E-03 -4.37071870E-03  0.00000000E+00
  1.11863233E-01  8.70730009E-02 -1.08131989E-03 -1.47190466E-03 -5.18582112E-03
  1.11863233E-01  8.70730009E-02 -1.08131989E-03 -1.47190466E-03  5.18582112E-03
  2.24192187E-03 -6.66141237E-03  3.04314084E-01  3.63899652E-02  0.00000000E+00
 -2.06610580E-02  1.06223794E-01  1.66579719E-02  0.00000000E+00  8.37066730E-04
 -5.07098828E-03  7.28032485E-04  1.59970034E-03  0.00000000E+00  0.00000000E+00
 -3.28375289E-02 -3.21041169E-02  6.50182375E-03  1.72463746E-03  0.00000000E+00
 -2.23851859E-03  5.32881795E-03 -1.98715868E-01  2.78475250E-01  0.00000000E+00
 -1.91172879E-02 -6.45941987E-02  1.02080006E-01  0.00000000E+00  6.75297724E-03
 -1.27868659E-02  7.45739282E-05  1.52512106E-03  0.00000000E+00  0.00000000E+00
 -2.00029803E-01 -1.64295898E-01 -6.01940154E-04 -6.06347727E-03  0.00000000E+00
  3.23055518E-02  2.64544237E-02 -5.95182439E-03  3.14612060E-03  0.00000000E+00
  0.00000000E+00  0.00000000E+00  0.00000000E+00  0.00000000E+00  4.27555025E-01
  0.00000000E+00  0.00000000E+00  0.00000000E+00  1.88664643E-01  0.00000000E+00
  0.00000000E+00  0.00000000E+00  0.00000000E+00  4.75357340E-03 -1.80518276E-02
  0.00000000E+00  0.00000000E+00  0.00000000E+00  0.00000000E+00  8.24708472E-03
  2.21367801E-01  1.90296726E-01 -2.60287633E-05  7.60016003E-03 -1.85224096E-03
 -2.21367801E-01 -1.90296726E-01  2.60287633E-05 -7.60016003E-03 -1.85224096E-03
  0.00000000E+00  0.00000000E+00  0.00000000E+00  0.00000000E+00  1.47835666E-01
  0.00000000E+00  0.00000000E+00  0.00000000E+00  7.58056245E-02  0.00000000E+00
  0.00000000E+00  0.00000000E+00  0.00000000E+00 -5.12303234E-03 -8.84955246E-03
  0.00000000E+00  0.00000000E+00  0.00000000E+00  0.00000000E+00  3.01739273E-03
  0.00000000E+00  0.00000000E+00  0.00000000E+00  0.00000000E+00  6.73682730E-02
  0.00000000E+00  0.00000000E+00  0.00000000E+00  3.70697885E-02  0.00000000E+00
  0.00000000E+00  0.00000000E+00  0.00000000E+00 -5.51631147E-03  2.70928865E-04
  0.00000000E+00  0.00000000E+00  0.00000000E+00  0.00000000E+00  1.72449544E-03
  0.00000000E+00  0.00000000E+00  0.00000000E+00  0.00000000E+00  1.25927694E-03
 -8.40552053E-03  1.93657085E-02  3.40829648E-01 -1.41216365E-01  0.00000000E+00
  4.82392348E-02  1.50069074E-01 -4.73850811E-02  0.00000000E+00 -1.80507818E-02
  7.00232254E-03  8.47319905E-03  1.46248737E-02  0.00000000E+00  0.00000000E+00
 -2.50272868E-01 -2.46003994E-01 -4.63115792E-03  3.54308665E-03  0.00000000E+00
  7.70005686E-02  7.34478554E-02  6.47316878E-03 -1.05269853E-03 -3.44690482E-03
  7.70005686E-02  7.34478554E-02  6.47316878E-03 -1.05269853E-03  3.44690482E-03
 -1.74694265E-03  3.16848458E-03 -2.59769299E-01  4.01285575E-02  0.00000000E+00
  3.02633664E-02 -5.54218373E-02  1.93332511E-02  0.00000000E+00 -1.17233444E-02
  1.45382440E-02  3.04025563E-04  1.04430384E-02  0.00000000E+00  0.00000000E+00
  7.58417579E-02  7.19376973E-02 -3.11613836E-03 -2.25284655E-03  0.00000000E+00
  2.60038432E-02 -5.51762163E-02  2.68875235E-01  6.41598995E-02  0.00000000E+00
 -8.89037244E-02  9.82999836E-02  1.19111692E-02  0.00000000E+00  1.24548184E-03
  7.78608630E-03  1.44382656E-03  1.01563199E-02  0.00000000E+00  0.00000000E+00
 -1.22610857E-02  4.87423622E-05  4.82828196E-03 -5.86469328E-04  0.00000000E+00
  1.37583151E-01  1.47146145E-01  1.16265910E-04 -3.63945322E-03  0.00000000E+00
  2.36158967E-02 -5.04315826E-02 -1.23076881E-01 -2.58607307E-01  0.00000000E+00
 -1.18614206E-01 -6.18843061E-02 -1.34634194E-01  0.00000000E+00 -1.10311608E-02
  5.82794884E-03  1.04459070E-02 -5.50347602E-03  0.00000000E+00  0.00000000E+00
 -3.57895179E-02 -2.05379805E-02 -3.13506735E-03 -3.36499551E-03  0.00000000E+00