 Optimized at M062X/6-311G**
GAUSSIAN             20 MOL ORBITALS    268 PRIMITIVES       12 NUCLEI
  O    1    (CENTRE  1)   2.55192962  2.55192962 -0.13335986  CHARGE =  8.0
  H    2    (CENTRE  2)   3.42296486  3.00983105 -1.65485017  CHARGE =  1.0
  H    3    (CENTRE  3)   2.81404597  0.72848942  0.05649903  CHARGE =  1.0
  O    4    (CENTRE  4)  -2.55192962  2.55192962  0.13335986  CHARGE =  8.0
  H    5    (CENTRE  5)  -3.00983105  3.42296486  1.65485017  CHARGE =  1.0
  H    6    (CENTRE  6)  -0.72848942  2.81404597 -0.05649903  CHARGE =  1.0
  O    7    (CENTRE  7)  -2.55192962 -2.55192962 -0.13335986  CHARGE =  8.0
  H    8    (CENTRE  8)  -3.42296486 -3.00983105 -1.65485017  CHARGE =  1.0
  H    9    (CENTRE  9)  -2.81404597 -0.72848942  0.05649903  CHARGE =  1.0
  O   10    (CENTRE 10)   2.55192962 -2.55192962  0.13335986  CHARGE =  8.0
  H   11    (CENTRE 11)   0.72848942 -2.81404597 -0.05649903  CHARGE =  1.0
  H   12    (CENTRE 12)   3.00983105 -3.42296486  1.65485017  CHARGE =  1.0
CENTRE ASSIGNMENTS    1  1  1  1  1  1  1  1  1  1  1  1  1  1  1  1  1  1  1  1
CENTRE ASSIGNMENTS    1  1  1  1  1  1  1  1  1  1  1  1  1  1  1  1  1  1  1  1
CENTRE ASSIGNMENTS    1  1  1  1  1  1  1  1  1  1  1  2  2  2  2  2  2  2  2  3
CENTRE ASSIGNMENTS    3  3  3  3  3  3  3  4  4  4  4  4  4  4  4  4  4  4  4  4
CENTRE ASSIGNMENTS    4  4  4  4  4  4  4  4  4  4  4  4  4  4  4  4  4  4  4  4
CENTRE ASSIGNMENTS    4  4  4  4  4  4  4  4  4  4  4  4  4  4  4  4  4  4  5  5
CENTRE ASSIGNMENTS    5  5  5  5  5  5  6  6  6  6  6  6  6  6  7  7  7  7  7  7
CENTRE ASSIGNMENTS    7  7  7  7  7  7  7  7  7  7  7  7  7  7  7  7  7  7  7  7
CENTRE ASSIGNMENTS    7  7  7  7  7  7  7  7  7  7  7  7  7  7  7  7  7  7  7  7
CENTRE ASSIGNMENTS    7  7  7  7  7  8  8  8  8  8  8  8  8  9  9  9  9  9  9  9
CENTRE ASSIGNMENTS    9 10 10 10 10 10 10 10 10 10 10 10 10 10 10 10 10 10 10 10
CENTRE ASSIGNMENTS   10 10 10 10 10 10 10 10 10 10 10 10 10 10 10 10 10 10 10 10
CENTRE ASSIGNMENTS   10 10 10 10 10 10 10 10 10 10 10 10 11 11 11 11 11 11 11 11
CENTRE ASSIGNMENTS   12 12 12 12 12 12 12 12
TYPE ASSIGNMENTS      1  1  1  1  1  1  1  1  1  1  1  2  2  2  2  3  3  3  3  4
TYPE ASSIGNMENTS      4  4  4  2  3  4  2  3  4  5  6  7  8  9 10  5  6  7  8  9
TYPE ASSIGNMENTS     10 11 12 13 17 14 15 18 19 16 20  1  1  1  1  1  2  3  4  1
TYPE ASSIGNMENTS      1  1  1  1  2  3  4  1  1  1  1  1  1  1  1  1  1  1  2  2
TYPE ASSIGNMENTS      2  2  3  3  3  3  4  4  4  4  2  3  4  2  3  4  5  6  7  8
TYPE ASSIGNMENTS      9 10  5  6  7  8  9 10 11 12 13 17 14 15 18 19 16 20  1  1
TYPE ASSIGNMENTS      1  1  1  2  3  4  1  1  1  1  1  2  3  4  1  1  1  1  1  1
TYPE ASSIGNMENTS      1  1  1  1  1  2  2  2  2  3  3  3  3  4  4  4  4  2  3  4
TYPE ASSIGNMENTS      2  3  4  5  6  7  8  9 10  5  6  7  8  9 10 11 12 13 17 14
TYPE ASSIGNMENTS     15 18 19 16 20  1  1  1  1  1  2  3  4  1  1  1  1  1  2  3
TYPE ASSIGNMENTS      4  1  1  1  1  1  1  1  1  1  1  1  2  2  2  2  3  3  3  3
TYPE ASSIGNMENTS      4  4  4  4  2  3  4  2  3  4  5  6  7  8  9 10  5  6  7  8
TYPE ASSIGNMENTS      9 10 11 12 13 17 14 15 18 19 16 20  1  1  1  1  1  2  3  4
TYPE ASSIGNMENTS      1  1  1  1  1  2  3  4
EXPONENTS  0.2703238D+05 0.4052387D+04 0.9223272D+03 0.2612407D+03 0.8535464D+02
EXPONENTS  0.3103504D+02 0.1226086D+02 0.4998708D+01 0.1170311D+01 0.4647474D+00
EXPONENTS  0.1850454D+00 0.6327495D+02 0.1462705D+02 0.4450122D+01 0.1527580D+01
EXPONENTS  0.6327495D+02 0.1462705D+02 0.4450122D+01 0.1527580D+01 0.6327495D+02
EXPONENTS  0.1462705D+02 0.4450122D+01 0.1527580D+01 0.5293512D+00 0.5293512D+00
EXPONENTS  0.5293512D+00 0.1747842D+00 0.1747842D+00 0.1747842D+00 0.2314000D+01
EXPONENTS  0.2314000D+01 0.2314000D+01 0.2314000D+01 0.2314000D+01 0.2314000D+01
EXPONENTS  0.6450000D+00 0.6450000D+00 0.6450000D+00 0.6450000D+00 0.6450000D+00
EXPONENTS  0.6450000D+00 0.1428000D+01 0.1428000D+01 0.1428000D+01 0.1428000D+01
EXPONENTS  0.1428000D+01 0.1428000D+01 0.1428000D+01 0.1428000D+01 0.1428000D+01
EXPONENTS  0.1428000D+01 0.3406134D+02 0.5123575D+01 0.1164663D+01 0.3272304D+00
EXPONENTS  0.1030724D+00 0.8000000D+00 0.8000000D+00 0.8000000D+00 0.3406134D+02
EXPONENTS  0.5123575D+01 0.1164663D+01 0.3272304D+00 0.1030724D+00 0.8000000D+00
EXPONENTS  0.8000000D+00 0.8000000D+00 0.2703238D+05 0.4052387D+04 0.9223272D+03
EXPONENTS  0.2612407D+03 0.8535464D+02 0.3103504D+02 0.1226086D+02 0.4998708D+01
EXPONENTS  0.1170311D+01 0.4647474D+00 0.1850454D+00 0.6327495D+02 0.1462705D+02
EXPONENTS  0.4450122D+01 0.1527580D+01 0.6327495D+02 0.1462705D+02 0.4450122D+01
EXPONENTS  0.1527580D+01 0.6327495D+02 0.1462705D+02 0.4450122D+01 0.1527580D+01
EXPONENTS  0.5293512D+00 0.5293512D+00 0.5293512D+00 0.1747842D+00 0.1747842D+00
EXPONENTS  0.1747842D+00 0.2314000D+01 0.2314000D+01 0.2314000D+01 0.2314000D+01
EXPONENTS  0.2314000D+01 0.2314000D+01 0.6450000D+00 0.6450000D+00 0.6450000D+00
EXPONENTS  0.6450000D+00 0.6450000D+00 0.6450000D+00 0.1428000D+01 0.1428000D+01
EXPONENTS  0.1428000D+01 0.1428000D+01 0.1428000D+01 0.1428000D+01 0.1428000D+01
EXPONENTS  0.1428000D+01 0.1428000D+01 0.1428000D+01 0.3406134D+02 0.5123575D+01
EXPONENTS  0.1164663D+01 0.3272304D+00 0.1030724D+00 0.8000000D+00 0.8000000D+00
EXPONENTS  0.8000000D+00 0.3406134D+02 0.5123575D+01 0.1164663D+01 0.3272304D+00
EXPONENTS  0.1030724D+00 0.8000000D+00 0.8000000D+00 0.8000000D+00 0.2703238D+05
EXPONENTS  0.4052387D+04 0.9223272D+03 0.2612407D+03 0.8535464D+02 0.3103504D+02
EXPONENTS  0.1226086D+02 0.4998708D+01 0.1170311D+01 0.4647474D+00 0.1850454D+00
EXPONENTS  0.6327495D+02 0.1462705D+02 0.4450122D+01 0.1527580D+01 0.6327495D+02
EXPONENTS  0.1462705D+02 0.4450122D+01 0.1527580D+01 0.6327495D+02 0.1462705D+02
EXPONENTS  0.4450122D+01 0.1527580D+01 0.5293512D+00 0.5293512D+00 0.5293512D+00
EXPONENTS  0.1747842D+00 0.1747842D+00 0.1747842D+00 0.2314000D+01 0.2314000D+01
EXPONENTS  0.2314000D+01 0.2314000D+01 0.2314000D+01 0.2314000D+01 0.6450000D+00
EXPONENTS  0.6450000D+00 0.6450000D+00 0.6450000D+00 0.6450000D+00 0.6450000D+00
EXPONENTS  0.1428000D+01 0.1428000D+01 0.1428000D+01 0.1428000D+01 0.1428000D+01
EXPONENTS  0.1428000D+01 0.1428000D+01 0.1428000D+01 0.1428000D+01 0.1428000D+01
EXPONENTS  0.3406134D+02 0.5123575D+01 0.1164663D+01 0.3272304D+00 0.1030724D+00
EXPONENTS  0.8000000D+00 0.8000000D+00 0.8000000D+00 0.3406134D+02 0.5123575D+01
EXPONENTS  0.1164663D+01 0.3272304D+00 0.1030724D+00 0.8000000D+00 0.8000000D+00
EXPONENTS  0.8000000D+00 0.2703238D+05 0.4052387D+04 0.9223272D+03 0.2612407D+03
EXPONENTS  0.8535464D+02 0.3103504D+02 0.1226086D+02 0.4998708D+01 0.1170311D+01
EXPONENTS  0.4647474D+00 0.1850454D+00 0.6327495D+02 0.1462705D+02 0.4450122D+01
EXPONENTS  0.1527580D+01 0.6327495D+02 0.1462705D+02 0.4450122D+01 0.1527580D+01
EXPONENTS  0.6327495D+02 0.1462705D+02 0.4450122D+01 0.1527580D+01 0.5293512D+00
EXPONENTS  0.5293512D+00 0.5293512D+00 0.1747842D+00 0.1747842D+00 0.1747842D+00
EXPONENTS  0.2314000D+01 0.2314000D+01 0.2314000D+01 0.2314000D+01 0.2314000D+01
EXPONENTS  0.2314000D+01 0.6450000D+00 0.6450000D+00 0.6450000D+00 0.6450000D+00
EXPONENTS  0.6450000D+00 0.6450000D+00 0.1428000D+01 0.1428000D+01 0.1428000D+01
EXPONENTS  0.1428000D+01 0.1428000D+01 0.1428000D+01 0.1428000D+01 0.1428000D+01
EXPONENTS  0.1428000D+01 0.1428000D+01 0.3406134D+02 0.5123575D+01 0.1164663D+01
EXPONENTS  0.3272304D+00 0.1030724D+00 0.8000000D+00 0.8000000D+00 0.8000000D+00
EXPONENTS  0.3406134D+02 0.5123575D+01 0.1164663D+01 0.3272304D+00 0.1030724D+00
EXPONENTS  0.8000000D+00 0.8000000D+00 0.8000000D+00
MO    1     MO 0.0        OCC NO =    2.0000000  ORB. ENERGY =  -19.620256
  0.18743182D+00  0.34997339D+00  0.59854619D+00  0.93704491D+00  0.12816709D+01
  0.13768479D+01  0.95512998D+00  0.30178651D+00  0.11232226D-01 -0.34261924D-02
  0.76989832D-03  0.10305664D-02  0.11408915D-02  0.99356165D-03  0.57704780D-03
 -0.13868515D-02 -0.15353180D-02 -0.13370536D-02 -0.77654349D-03 -0.15762191D-02
 -0.17449579D-02 -0.15196215D-02 -0.88257660D-03 -0.28441428D-03  0.54756361D-03
  0.39909295D-03 -0.24345212D-05 -0.98256946D-04 -0.34436541D-04 -0.47516936D-03
  0.22810932D-03  0.24706005D-03 -0.14539262D-03 -0.72159840D-03 -0.60612938D-03
  0.20623215D-03 -0.15456178D-03 -0.51670367D-04  0.75200930D-04  0.26711358D-03
  0.23063479D-03  0.13516810D-03  0.32238950D-03  0.71164412D-04 -0.11147772D-03
 -0.37966049D-03  0.13726183D-03 -0.29402657D-03 -0.58750799D-03 -0.35075507D-03
  0.49241393D-03  0.88757263D-04  0.16018879D-03  0.23649219D-03  0.14633986D-03
 -0.80008845D-04 -0.14987103D-03 -0.82068276D-04  0.32176498D-03  0.88553949D-04
  0.15982185D-03  0.23595047D-03  0.20636809D-03 -0.12324074D-03 -0.44086285D-04
  0.49848150D-03 -0.55680174D-04 -0.18743182D+00 -0.34997340D+00 -0.59854620D+00
 -0.93704492D+00 -0.12816709D+01 -0.13768479D+01 -0.95513000D+00 -0.30178651D+00
 -0.11232226D-01  0.34261924D-02 -0.76989834D-03 -0.13868516D-02 -0.15353180D-02
 -0.13370536D-02 -0.77654350D-03 -0.10305664D-02 -0.11408915D-02 -0.99356166D-03
 -0.57704780D-03 -0.15762192D-02 -0.17449579D-02 -0.15196216D-02 -0.88257661D-03
  0.54756362D-03  0.28441428D-03  0.39909295D-03 -0.98256946D-04  0.24345217D-05
 -0.34436542D-04 -0.22810932D-03  0.47516937D-03 -0.24706005D-03 -0.14539262D-03
  0.60612938D-03 -0.72159841D-03  0.15456178D-03 -0.20623215D-03  0.51670367D-04
  0.75200930D-04 -0.23063479D-03  0.26711358D-03  0.32238950D-03 -0.13516810D-03
  0.71164413D-04 -0.37966050D-03  0.11147773D-03 -0.35075507D-03 -0.58750800D-03
  0.29402657D-03  0.13726183D-03 -0.49241393D-03 -0.88757264D-04 -0.16018879D-03
 -0.23649219D-03 -0.14633986D-03  0.80008845D-04 -0.82068277D-04  0.14987104D-03
  0.32176498D-03 -0.88553950D-04 -0.15982185D-03 -0.23595047D-03 -0.20636809D-03
  0.12324074D-03  0.49848151D-03  0.44086286D-04 -0.55680175D-04  0.18743182D+00
  0.34997340D+00  0.59854619D+00  0.93704491D+00  0.12816709D+01  0.13768479D+01
  0.95512999D+00  0.30178651D+00  0.11232226D-01 -0.34261924D-02  0.76989833D-03
 -0.10305664D-02 -0.11408915D-02 -0.99356165D-03 -0.57704780D-03  0.13868515D-02
  0.15353180D-02  0.13370536D-02  0.77654350D-03 -0.15762191D-02 -0.17449579D-02
 -0.15196215D-02 -0.88257660D-03  0.28441428D-03 -0.54756362D-03  0.39909295D-03
  0.24345220D-05  0.98256944D-04 -0.34436542D-04 -0.47516936D-03  0.22810932D-03
  0.24706004D-03 -0.14539262D-03  0.72159841D-03  0.60612938D-03  0.20623215D-03
 -0.15456179D-03 -0.51670366D-04  0.75200931D-04 -0.26711358D-03 -0.23063479D-03
 -0.13516810D-03 -0.32238950D-03  0.71164413D-04  0.11147773D-03  0.37966050D-03
  0.13726183D-03  0.29402657D-03  0.58750800D-03 -0.35075507D-03  0.49241393D-03
  0.88757263D-04  0.16018879D-03  0.23649219D-03  0.14633986D-03 -0.80008845D-04
  0.14987103D-03  0.82068277D-04  0.32176498D-03  0.88553950D-04  0.15982185D-03
  0.23595047D-03  0.20636809D-03 -0.12324074D-03  0.44086287D-04 -0.49848151D-03
 -0.55680174D-04 -0.18743182D+00 -0.34997339D+00 -0.59854619D+00 -0.93704491D+00
 -0.12816709D+01 -0.13768479D+01 -0.95512998D+00 -0.30178651D+00 -0.11232226D-01
  0.34261923D-02 -0.76989832D-03  0.13868515D-02  0.15353180D-02  0.13370536D-02
  0.77654349D-03  0.10305664D-02  0.11408915D-02  0.99356164D-03  0.57704779D-03
 -0.15762191D-02 -0.17449579D-02 -0.15196215D-02 -0.88257660D-03 -0.54756361D-03
 -0.28441427D-03  0.39909295D-03  0.98256944D-04 -0.24345217D-05 -0.34436541D-04
 -0.22810932D-03  0.47516936D-03 -0.24706004D-03 -0.14539262D-03 -0.60612937D-03
  0.72159840D-03  0.15456178D-03 -0.20623215D-03  0.51670366D-04  0.75200931D-04
  0.23063479D-03 -0.26711358D-03 -0.32238950D-03  0.13516810D-03  0.71164412D-04
  0.37966049D-03 -0.11147773D-03 -0.35075507D-03  0.58750799D-03 -0.29402656D-03
  0.13726183D-03 -0.49241393D-03 -0.88553949D-04 -0.15982185D-03 -0.23595047D-03
 -0.20636809D-03  0.12324074D-03 -0.49848150D-03 -0.44086286D-04 -0.55680174D-04
 -0.88757262D-04 -0.16018879D-03 -0.23649219D-03 -0.14633985D-03  0.80008844D-04
  0.82068276D-04 -0.14987103D-03  0.32176498D-03
MO    2     MO 0.0        OCC NO =    2.0000000  ORB. ENERGY =  -19.620249
  0.26331569D+00  0.49166405D+00  0.84087432D+00  0.13164180D+01  0.18005697D+01
  0.19342802D+01  0.13418352D+01  0.42397135D+00  0.15723357D-01 -0.47701104D-02
  0.13101237D-02  0.14480133D-02  0.16030273D-02  0.13960192D-02  0.81078996D-03
 -0.17847415D-02 -0.19758032D-02 -0.17206564D-02 -0.99933507D-03 -0.21830307D-02
 -0.24167304D-02 -0.21046442D-02 -0.12223502D-02 -0.38643085D-03  0.53481156D-03
  0.53577655D-03 -0.65432683D-05 -0.12177471D-03 -0.39386520D-04 -0.57245292D-03
  0.34641890D-03  0.22603402D-03  0.16096276D-03 -0.10284483D-02 -0.74267539D-03
  0.22020719D-03 -0.14823224D-03 -0.71974947D-04 -0.27989638D-04  0.36527685D-03
  0.24581813D-03  0.17366253D-03  0.35507248D-03  0.99118374D-04 -0.74701819D-04
 -0.37023556D-03  0.12869091D-03 -0.44628578D-03 -0.69498188D-03 -0.42604603D-03
  0.55055258D-03  0.12558462D-03  0.22665468D-03  0.33461806D-03  0.13795749D-03
 -0.72119604D-04 -0.21035002D-03 -0.14790638D-03  0.41793971D-03  0.11063471D-03
  0.19967314D-03  0.29478428D-03  0.11288555D-03 -0.28815689D-03 -0.21981095D-04
  0.50430992D-03 -0.74381924D-04 -0.30436261D-01 -0.56830700D-01 -0.97195386D-01
 -0.15216276D+00 -0.20812512D+00 -0.22358051D+00 -0.15508820D+00 -0.49002259D-01
 -0.18858322D-02  0.62064031D-03  0.11714128D-04 -0.28879076D-03 -0.31970664D-03
 -0.27842109D-03 -0.16170338D-03 -0.11272259D-03 -0.12478987D-03 -0.10867504D-03
 -0.63117064D-04 -0.24302480D-03 -0.26904130D-03 -0.23429846D-03 -0.13607753D-03
  0.25954477D-03  0.10881802D-04  0.38571456D-04  0.10222581D-03  0.60787445D-04
 -0.21368662D-04 -0.21124143D-03  0.71468239D-04  0.13977319D-03 -0.55125546D-05
  0.16254035D-03 -0.18945886D-03  0.19753773D-03 -0.84854272D-04 -0.11268346D-03
  0.51450772D-04 -0.85035652D-04  0.52295301D-04  0.16388523D-03 -0.58209452D-04
  0.41843124D-04 -0.24083823D-03  0.11560052D-03 -0.16406967D-03 -0.25081746D-03
  0.59027839D-04  0.38540293D-04 -0.34780119D-04 -0.95630732D-05 -0.17259401D-04
 -0.25480643D-04 -0.17354468D-04  0.13708964D-04 -0.37617627D-04 -0.12266693D-06
  0.34277346D-04 -0.24147310D-04 -0.43580979D-04 -0.64340090D-04 -0.33929078D-03
 -0.12120316D-03  0.34665620D-03  0.11080714D-03 -0.29990835D-04 -0.26331569D+00
 -0.49166405D+00 -0.84087433D+00 -0.13164180D+01 -0.18005697D+01 -0.19342802D+01
 -0.13418352D+01 -0.42397135D+00 -0.15723357D-01  0.47701104D-02 -0.13101237D-02
  0.14480133D-02  0.16030273D-02  0.13960192D-02  0.81078997D-03 -0.17847415D-02
 -0.19758032D-02 -0.17206564D-02 -0.99933507D-03  0.21830307D-02  0.24167304D-02
  0.21046442D-02  0.12223502D-02 -0.38643085D-03  0.53481157D-03 -0.53577656D-03
 -0.65432684D-05 -0.12177471D-03  0.39386520D-04  0.57245292D-03 -0.34641890D-03
 -0.22603402D-03 -0.16096276D-03 -0.10284483D-02 -0.74267539D-03 -0.22020719D-03
  0.14823224D-03  0.71974947D-04  0.27989638D-04  0.36527685D-03  0.24581813D-03
  0.17366253D-03  0.35507248D-03 -0.99118375D-04 -0.74701819D-04 -0.37023556D-03
 -0.12869091D-03 -0.44628578D-03 -0.69498188D-03  0.42604604D-03 -0.55055258D-03
 -0.12558462D-03 -0.22665468D-03 -0.33461806D-03 -0.13795749D-03  0.72119604D-04
 -0.21035002D-03 -0.14790638D-03 -0.41793971D-03 -0.11063471D-03 -0.19967314D-03
 -0.29478428D-03 -0.11288555D-03  0.28815689D-03 -0.21981095D-04  0.50430992D-03
  0.74381924D-04  0.30436259D-01  0.56830697D-01  0.97195380D-01  0.15216275D+00
  0.20812511D+00  0.22358050D+00  0.15508819D+00  0.49002256D-01  0.18858320D-02
 -0.62064028D-03 -0.11714139D-04 -0.28879074D-03 -0.31970662D-03 -0.27842108D-03
 -0.16170337D-03 -0.11272258D-03 -0.12478986D-03 -0.10867503D-03 -0.63117058D-04
  0.24302478D-03  0.26904128D-03  0.23429845D-03  0.13607752D-03  0.25954476D-03
  0.10881800D-04 -0.38571452D-04  0.10222581D-03  0.60787445D-04  0.21368662D-04
  0.21124142D-03 -0.71468235D-04 -0.13977319D-03  0.55125557D-05  0.16254034D-03
 -0.18945886D-03 -0.19753773D-03  0.84854271D-04  0.11268346D-03 -0.51450772D-04
 -0.85035651D-04  0.52295299D-04  0.16388523D-03 -0.58209451D-04 -0.41843124D-04
 -0.24083823D-03  0.11560052D-03  0.16406966D-03 -0.25081746D-03  0.59027835D-04
 -0.38540292D-04  0.34780116D-04  0.24147309D-04  0.43580978D-04  0.64340088D-04
  0.33929078D-03  0.12120317D-03  0.34665619D-03  0.11080714D-03  0.29990834D-04
  0.95630723D-05  0.17259399D-04  0.25480641D-04  0.17354468D-04 -0.13708964D-04
 -0.37617626D-04 -0.12266834D-06 -0.34277343D-04
MO    3     MO 0.0        OCC NO =    2.0000000  ORB. ENERGY =  -19.620249
  0.30436261D-01  0.56830702D-01  0.97195389D-01  0.15216277D+00  0.20812513D+00
  0.22358052D+00  0.15508821D+00  0.49002260D-01  0.18858322D-02 -0.62064033D-03
 -0.11714125D-04  0.11272260D-03  0.12478988D-03  0.10867505D-03  0.63117067D-04
 -0.28879076D-03 -0.31970664D-03 -0.27842110D-03 -0.16170339D-03 -0.24302481D-03
 -0.26904131D-03 -0.23429847D-03 -0.13607753D-03 -0.10881804D-04  0.25954477D-03
  0.38571457D-04 -0.60787445D-04  0.10222581D-03 -0.21368663D-04 -0.71468241D-04
  0.21124143D-03 -0.13977319D-03 -0.55125555D-05 -0.18945887D-03 -0.16254035D-03
  0.84854273D-04 -0.19753773D-03  0.11268346D-03  0.51450772D-04  0.52295303D-04
  0.85035653D-04  0.58209453D-04  0.16388523D-03  0.41843125D-04 -0.11560052D-03
 -0.24083823D-03  0.38540293D-04 -0.59027840D-04 -0.25081747D-03 -0.16406967D-03
  0.34780122D-04  0.95630737D-05  0.17259401D-04  0.25480644D-04  0.17354469D-04
 -0.13708964D-04  0.12266619D-06 -0.37617628D-04  0.34277347D-04  0.24147310D-04
  0.43580980D-04  0.64340091D-04  0.33929078D-03  0.12120316D-03 -0.11080714D-03
  0.34665620D-03 -0.29990835D-04  0.26331569D+00  0.49166405D+00  0.84087432D+00
  0.13164180D+01  0.18005697D+01  0.19342802D+01  0.13418352D+01  0.42397135D+00
  0.15723357D-01 -0.47701104D-02  0.13101237D-02  0.17847415D-02  0.19758032D-02
  0.17206564D-02  0.99933507D-03  0.14480133D-02  0.16030273D-02  0.13960192D-02
  0.81078997D-03  0.21830307D-02  0.24167304D-02  0.21046442D-02  0.12223502D-02
 -0.53481156D-03 -0.38643085D-03 -0.53577655D-03  0.12177471D-03 -0.65432684D-05
  0.39386520D-04  0.34641890D-03 -0.57245292D-03  0.22603402D-03 -0.16096276D-03
 -0.74267539D-03  0.10284483D-02 -0.14823224D-03  0.22020718D-03 -0.71974947D-04
  0.27989639D-04  0.24581813D-03 -0.36527685D-03 -0.35507248D-03  0.17366253D-03
 -0.99118374D-04  0.37023556D-03 -0.74701818D-04  0.42604603D-03  0.69498188D-03
 -0.44628578D-03 -0.12869091D-03  0.55055258D-03  0.12558462D-03  0.22665468D-03
  0.33461806D-03  0.13795749D-03 -0.72119603D-04  0.14790638D-03 -0.21035002D-03
 -0.41793971D-03  0.11063471D-03  0.19967314D-03  0.29478428D-03  0.11288555D-03
 -0.28815689D-03 -0.50430992D-03 -0.21981094D-04  0.74381924D-04 -0.30436258D-01
 -0.56830695D-01 -0.97195377D-01 -0.15216275D+00 -0.20812510D+00 -0.22358049D+00
 -0.15508819D+00 -0.49002254D-01 -0.18858320D-02  0.62064026D-03  0.11714142D-04
  0.11272258D-03  0.12478985D-03  0.10867503D-03  0.63117056D-04 -0.28879074D-03
 -0.31970661D-03 -0.27842107D-03 -0.16170337D-03  0.24302478D-03  0.26904127D-03
  0.23429844D-03  0.13607751D-03 -0.10881798D-04  0.25954476D-03 -0.38571450D-04
 -0.60787445D-04  0.10222581D-03  0.21368662D-04  0.71468233D-04 -0.21124142D-03
  0.13977319D-03  0.55125548D-05 -0.18945885D-03 -0.16254034D-03 -0.84854270D-04
  0.19753773D-03 -0.11268346D-03 -0.51450772D-04  0.52295298D-04  0.85035649D-04
  0.58209450D-04  0.16388523D-03 -0.41843123D-04 -0.11560052D-03 -0.24083823D-03
 -0.38540291D-04 -0.59027834D-04 -0.25081746D-03  0.16406966D-03 -0.34780113D-04
 -0.95630719D-05 -0.17259398D-04 -0.25480640D-04 -0.17354467D-04  0.13708963D-04
  0.12266908D-06 -0.37617626D-04 -0.34277341D-04 -0.24147309D-04 -0.43580977D-04
 -0.64340087D-04 -0.33929078D-03 -0.12120317D-03 -0.11080714D-03  0.34665619D-03
  0.29990834D-04 -0.26331569D+00 -0.49166405D+00 -0.84087432D+00 -0.13164180D+01
 -0.18005697D+01 -0.19342802D+01 -0.13418352D+01 -0.42397135D+00 -0.15723357D-01
  0.47701104D-02 -0.13101237D-02  0.17847415D-02  0.19758032D-02  0.17206564D-02
  0.99933507D-03  0.14480133D-02  0.16030273D-02  0.13960192D-02  0.81078997D-03
 -0.21830307D-02 -0.24167304D-02 -0.21046442D-02 -0.12223502D-02 -0.53481157D-03
 -0.38643085D-03  0.53577656D-03  0.12177471D-03 -0.65432683D-05 -0.39386520D-04
 -0.34641890D-03  0.57245292D-03 -0.22603402D-03  0.16096276D-03 -0.74267539D-03
  0.10284483D-02  0.14823224D-03 -0.22020719D-03  0.71974947D-04 -0.27989637D-04
  0.24581813D-03 -0.36527685D-03 -0.35507248D-03  0.17366253D-03  0.99118374D-04
  0.37023556D-03 -0.74701819D-04 -0.42604604D-03  0.69498188D-03 -0.44628578D-03
  0.12869091D-03 -0.55055258D-03 -0.11063471D-03 -0.19967314D-03 -0.29478428D-03
 -0.11288555D-03  0.28815689D-03 -0.50430992D-03 -0.21981095D-04 -0.74381924D-04
 -0.12558462D-03 -0.22665468D-03 -0.33461806D-03 -0.13795749D-03  0.72119604D-04
  0.14790638D-03 -0.21035002D-03  0.41793971D-03
MO    4     MO 0.0        OCC NO =    2.0000000  ORB. ENERGY =  -19.620242
  0.18743185D+00  0.34997346D+00  0.59854631D+00  0.93704509D+00  0.12816711D+01
  0.13768482D+01  0.95515465D+00  0.30179430D+00  0.11134740D-01 -0.33235389D-02
  0.10024936D-02  0.98706554D-03  0.10927337D-02  0.95162279D-03  0.55269025D-03
 -0.11956802D-02 -0.13236812D-02 -0.11527467D-02 -0.66950040D-03 -0.15401643D-02
 -0.17050433D-02 -0.14848613D-02 -0.86238829D-03 -0.22093811D-03  0.27537925D-03
  0.35927835D-03 -0.12005820D-04 -0.92189097D-04 -0.33726012D-04 -0.28813578D-03
  0.20259896D-03  0.85536821D-04  0.13805445D-03 -0.74456313D-03 -0.50089992D-03
  0.88851449D-04 -0.50338430D-04 -0.38513019D-04 -0.39355755D-04  0.24115377D-03
  0.13995105D-03  0.11634880D-03  0.20220500D-03  0.64269560D-04 -0.15846981D-04
 -0.20789145D-03  0.50370582D-04 -0.33319941D-03 -0.39872353D-03 -0.24317926D-03
  0.32456244D-03  0.90138568D-04  0.16268177D-03  0.24017266D-03  0.36058235D-04
 -0.27936108D-04 -0.13329945D-03 -0.92712058D-04  0.26038701D-03  0.66015083D-04
  0.11914379D-03  0.17589605D-03 -0.16993878D-04 -0.20886446D-03 -0.21288253D-04
  0.24752440D-03 -0.39292360D-04  0.18743185D+00  0.34997346D+00  0.59854630D+00
  0.93704508D+00  0.12816711D+01  0.13768481D+01  0.95515464D+00  0.30179430D+00
  0.11134740D-01 -0.33235388D-02  0.10024936D-02  0.11956802D-02  0.13236811D-02
  0.11527466D-02  0.66950039D-03  0.98706553D-03  0.10927337D-02  0.95162278D-03
  0.55269024D-03  0.15401642D-02  0.17050432D-02  0.14848613D-02  0.86238828D-03
 -0.27537924D-03 -0.22093811D-03 -0.35927834D-03  0.92189096D-04 -0.12005820D-04
  0.33726012D-04  0.20259895D-03 -0.28813577D-03  0.85536819D-04 -0.13805445D-03
 -0.50089991D-03  0.74456312D-03 -0.50338428D-04  0.88851446D-04 -0.38513019D-04
  0.39355755D-04  0.13995104D-03 -0.24115377D-03 -0.20220499D-03  0.11634879D-03
 -0.64269559D-04  0.20789145D-03 -0.15846980D-04  0.24317926D-03  0.39872353D-03
 -0.33319940D-03 -0.50370580D-04  0.32456244D-03  0.90138567D-04  0.16268176D-03
  0.24017265D-03  0.36058233D-04 -0.27936107D-04  0.92712057D-04 -0.13329945D-03
 -0.26038700D-03  0.66015082D-04  0.11914379D-03  0.17589604D-03 -0.16993880D-04
 -0.20886446D-03 -0.24752439D-03 -0.21288253D-04  0.39292359D-04  0.18743185D+00
  0.34997346D+00  0.59854630D+00  0.93704508D+00  0.12816711D+01  0.13768481D+01
  0.95515464D+00  0.30179430D+00  0.11134740D-01 -0.33235389D-02  0.10024936D-02
 -0.98706553D-03 -0.10927337D-02 -0.95162278D-03 -0.55269024D-03  0.11956802D-02
  0.13236812D-02  0.11527467D-02  0.66950040D-03 -0.15401642D-02 -0.17050432D-02
 -0.14848613D-02 -0.86238828D-03  0.22093811D-03 -0.27537925D-03  0.35927834D-03
  0.12005820D-04  0.92189096D-04 -0.33726012D-04 -0.28813577D-03  0.20259896D-03
  0.85536818D-04  0.13805445D-03  0.74456312D-03  0.50089991D-03  0.88851448D-04
 -0.50338430D-04 -0.38513018D-04 -0.39355754D-04 -0.24115377D-03 -0.13995104D-03
 -0.11634880D-03 -0.20220499D-03  0.64269560D-04  0.15846982D-04  0.20789145D-03
  0.50370581D-04  0.33319940D-03  0.39872353D-03 -0.24317926D-03  0.32456244D-03
  0.90138567D-04  0.16268177D-03  0.24017265D-03  0.36058234D-04 -0.27936107D-04
  0.13329945D-03  0.92712057D-04  0.26038701D-03  0.66015082D-04  0.11914379D-03
  0.17589605D-03 -0.16993877D-04 -0.20886446D-03  0.21288254D-04 -0.24752439D-03
 -0.39292359D-04  0.18743185D+00  0.34997346D+00  0.59854630D+00  0.93704509D+00
  0.12816711D+01  0.13768482D+01  0.95515465D+00  0.30179430D+00  0.11134740D-01
 -0.33235389D-02  0.10024936D-02 -0.11956802D-02 -0.13236812D-02 -0.11527467D-02
 -0.66950040D-03 -0.98706554D-03 -0.10927337D-02 -0.95162279D-03 -0.55269025D-03
  0.15401642D-02  0.17050432D-02  0.14848613D-02  0.86238829D-03  0.27537925D-03
  0.22093811D-03 -0.35927834D-03 -0.92189096D-04  0.12005820D-04  0.33726012D-04
  0.20259896D-03 -0.28813578D-03  0.85536819D-04 -0.13805445D-03  0.50089991D-03
 -0.74456313D-03 -0.50338431D-04  0.88851449D-04 -0.38513018D-04  0.39355755D-04
 -0.13995105D-03  0.24115377D-03  0.20220500D-03 -0.11634880D-03 -0.64269560D-04
 -0.20789145D-03  0.15846982D-04  0.24317926D-03 -0.39872353D-03  0.33319941D-03
 -0.50370582D-04  0.32456244D-03  0.66015083D-04  0.11914379D-03  0.17589605D-03
 -0.16993876D-04 -0.20886446D-03  0.24752440D-03  0.21288254D-04  0.39292360D-04
  0.90138568D-04  0.16268177D-03  0.24017266D-03  0.36058235D-04 -0.27936107D-04
 -0.92712058D-04  0.13329945D-03 -0.26038701D-03
MO    5     MO 0.0        OCC NO =    2.0000000  ORB. ENERGY =   -1.145690
 -0.40870168D-01 -0.76312931D-01 -0.13051510D+00 -0.20432594D+00 -0.27947285D+00
 -0.30022653D+00 -0.34008520D+00 -0.10745461D+00  0.13301841D+00  0.85862646D-01
  0.18094466D-01  0.39747248D-01  0.44002305D-01  0.38320036D-01  0.22255783D-01
 -0.65567103D-01 -0.72586250D-01 -0.63212773D-01 -0.36713164D-01 -0.66781059D-01
 -0.73930163D-01 -0.64383139D-01 -0.37392897D-01  0.62924224D-02 -0.12464704D-01
 -0.11732114D-01 -0.19571837D-03 -0.66287114D-03 -0.46711575D-03 -0.10527801D-01
  0.83680564D-02  0.21597442D-02 -0.20979380D-02 -0.21214583D-01 -0.12598529D-01
 -0.89553784D-03  0.15799328D-02 -0.68439493D-03 -0.15051982D-02 -0.43501348D-02
 -0.18235182D-02 -0.42885300D-02 -0.57251369D-02 -0.14952576D-02  0.34058896D-02
  0.65081265D-02 -0.17385293D-02  0.94597003D-02  0.10667284D-01  0.62243022D-02
 -0.45267218D-02  0.11196801D-01  0.20207946D-01  0.29833682D-01  0.99471571D-02
  0.31797123D-03 -0.42741523D-02 -0.30628436D-02  0.72944190D-02  0.11389885D-01
  0.20556423D-01  0.30348150D-01  0.96030089D-02  0.40592900D-04 -0.10810409D-02
  0.61929844D-02 -0.14006576D-02 -0.40870168D-01 -0.76312931D-01 -0.13051510D+00
 -0.20432594D+00 -0.27947285D+00 -0.30022653D+00 -0.34008520D+00 -0.10745461D+00
  0.13301841D+00  0.85862646D-01  0.18094466D-01  0.65567103D-01  0.72586250D-01
  0.63212773D-01  0.36713164D-01  0.39747248D-01  0.44002305D-01  0.38320036D-01
  0.22255783D-01  0.66781059D-01  0.73930163D-01  0.64383139D-01  0.37392897D-01
  0.12464704D-01  0.62924224D-02  0.11732114D-01  0.66287114D-03 -0.19571837D-03
  0.46711575D-03  0.83680564D-02 -0.10527801D-01  0.21597442D-02  0.20979380D-02
 -0.12598529D-01  0.21214583D-01  0.15799328D-02 -0.89553784D-03 -0.68439493D-03
  0.15051982D-02 -0.18235182D-02  0.43501348D-02  0.57251369D-02 -0.42885300D-02
  0.14952576D-02 -0.65081265D-02  0.34058896D-02 -0.62243022D-02 -0.10667284D-01
  0.94597003D-02  0.17385293D-02 -0.45267218D-02  0.11196801D-01  0.20207946D-01
  0.29833682D-01  0.99471571D-02  0.31797123D-03  0.30628436D-02 -0.42741523D-02
 -0.72944190D-02  0.11389885D-01  0.20556423D-01  0.30348150D-01  0.96030089D-02
  0.40592900D-04 -0.61929844D-02 -0.10810409D-02  0.14006576D-02 -0.40870168D-01
 -0.76312931D-01 -0.13051510D+00 -0.20432594D+00 -0.27947285D+00 -0.30022653D+00
 -0.34008520D+00 -0.10745461D+00  0.13301841D+00  0.85862646D-01  0.18094466D-01
 -0.39747248D-01 -0.44002305D-01 -0.38320036D-01 -0.22255783D-01  0.65567103D-01
  0.72586250D-01  0.63212773D-01  0.36713164D-01 -0.66781059D-01 -0.73930163D-01
 -0.64383139D-01 -0.37392897D-01 -0.62924224D-02  0.12464704D-01 -0.11732114D-01
  0.19571837D-03  0.66287114D-03 -0.46711575D-03 -0.10527801D-01  0.83680564D-02
  0.21597442D-02 -0.20979380D-02  0.21214583D-01  0.12598529D-01 -0.89553784D-03
  0.15799328D-02 -0.68439493D-03 -0.15051982D-02  0.43501348D-02  0.18235182D-02
  0.42885300D-02  0.57251369D-02 -0.14952576D-02 -0.34058896D-02 -0.65081265D-02
 -0.17385293D-02 -0.94597003D-02 -0.10667284D-01  0.62243022D-02 -0.45267218D-02
  0.11196801D-01  0.20207946D-01  0.29833682D-01  0.99471571D-02  0.31797123D-03
  0.42741523D-02  0.30628436D-02  0.72944190D-02  0.11389885D-01  0.20556423D-01
  0.30348150D-01  0.96030089D-02  0.40592900D-04  0.10810409D-02 -0.61929844D-02
 -0.14006576D-02 -0.40870168D-01 -0.76312931D-01 -0.13051510D+00 -0.20432594D+00
 -0.27947285D+00 -0.30022653D+00 -0.34008520D+00 -0.10745461D+00  0.13301841D+00
  0.85862646D-01  0.18094466D-01 -0.65567103D-01 -0.72586250D-01 -0.63212773D-01
 -0.36713164D-01 -0.39747248D-01 -0.44002305D-01 -0.38320036D-01 -0.22255783D-01
  0.66781059D-01  0.73930163D-01  0.64383139D-01  0.37392897D-01 -0.12464704D-01
 -0.62924224D-02  0.11732114D-01 -0.66287114D-03  0.19571837D-03  0.46711575D-03
  0.83680564D-02 -0.10527801D-01  0.21597442D-02  0.20979380D-02  0.12598529D-01
 -0.21214583D-01  0.15799328D-02 -0.89553784D-03 -0.68439493D-03  0.15051982D-02
  0.18235182D-02 -0.43501348D-02 -0.57251369D-02  0.42885300D-02  0.14952576D-02
  0.65081265D-02 -0.34058896D-02 -0.62243022D-02  0.10667284D-01 -0.94597003D-02
  0.17385293D-02 -0.45267218D-02  0.11389885D-01  0.20556423D-01  0.30348150D-01
  0.96030089D-02  0.40592900D-04  0.61929844D-02  0.10810409D-02  0.14006576D-02
  0.11196801D-01  0.20207946D-01  0.29833682D-01  0.99471571D-02  0.31797123D-03