 Optimized at M062X/6-311G**
GAUSSIAN              5 MOL ORBITALS     67 PRIMITIVES        3 NUCLEI
  O    1    (CENTRE  1)  -2.55192962  2.55192962  0.13335986  CHARGE =  8.0
  H    2    (CENTRE  2)  -3.00983105  3.42296486  1.65485017  CHARGE =  1.0
  H    3    (CENTRE  3)  -0.72848942  2.81404597 -0.05649903  CHARGE =  1.0
CENTRE ASSIGNMENTS    1  1  1  1  1  1  1  1  1  1  1  1  1  1  1  1  1  1  1  1
CENTRE ASSIGNMENTS    1  1  1  1  1  1  1  1  1  1  1  1  1  1  1  1  1  1  1  1
CENTRE ASSIGNMENTS    1  1  1  1  1  1  1  1  1  1  1  2  2  2  2  2  2  2  2  3
CENTRE ASSIGNMENTS    3  3  3  3  3  3  3
TYPE ASSIGNMENTS      1  1  1  1  1  1  1  1  1  1  1  2  2  2  2  3  3  3  3  4
TYPE ASSIGNMENTS      4  4  4  2  3  4  2  3  4  5  6  7  8  9 10  5  6  7  8  9
TYPE ASSIGNMENTS     10 11 12 13 17 14 15 18 19 16 20  1  1  1  1  1  2  3  4  1
TYPE ASSIGNMENTS      1  1  1  1  2  3  4
EXPONENTS  0.2703238D+05 0.4052387D+04 0.9223272D+03 0.2612407D+03 0.8535464D+02
EXPONENTS  0.3103504D+02 0.1226086D+02 0.4998708D+01 0.1170311D+01 0.4647474D+00
EXPONENTS  0.1850454D+00 0.6327495D+02 0.1462705D+02 0.4450122D+01 0.1527580D+01
EXPONENTS  0.6327495D+02 0.1462705D+02 0.4450122D+01 0.1527580D+01 0.6327495D+02
EXPONENTS  0.1462705D+02 0.4450122D+01 0.1527580D+01 0.5293512D+00 0.5293512D+00
EXPONENTS  0.5293512D+00 0.1747842D+00 0.1747842D+00 0.1747842D+00 0.2314000D+01
EXPONENTS  0.2314000D+01 0.2314000D+01 0.2314000D+01 0.2314000D+01 0.2314000D+01
EXPONENTS  0.6450000D+00 0.6450000D+00 0.6450000D+00 0.6450000D+00 0.6450000D+00
EXPONENTS  0.6450000D+00 0.1428000D+01 0.1428000D+01 0.1428000D+01 0.1428000D+01
EXPONENTS  0.1428000D+01 0.1428000D+01 0.1428000D+01 0.1428000D+01 0.1428000D+01
EXPONENTS  0.1428000D+01 0.3406134D+02 0.5123575D+01 0.1164663D+01 0.3272304D+00
EXPONENTS  0.1030724D+00 0.8000000D+00 0.8000000D+00 0.8000000D+00 0.3406134D+02
EXPONENTS  0.5123575D+01 0.1164663D+01 0.3272304D+00 0.1030724D+00 0.8000000D+00
EXPONENTS  0.8000000D+00 0.8000000D+00
MO    1     MO 0.0        OCC NO =    2.0000000  ORB. ENERGY =  -19.623552
  0.37485666D+00  0.69993376D+00  0.11970701D+01  0.18740549D+01  0.25632941D+01
  0.27536445D+01  0.19104550D+01  0.60363464D+00  0.22125868D-01 -0.64086586D-02
  0.13132300D-02  0.32701209D-02  0.36201968D-02  0.31527001D-02  0.18310476D-02
  0.27874578D-02  0.30858632D-02  0.26873681D-02  0.15607887D-02  0.33049805D-02
  0.36587882D-02  0.31863080D-02  0.18505666D-02 -0.93475884D-03 -0.77859313D-03
 -0.91608700D-03  0.79983116D-04  0.71716062D-04  0.86401236D-04  0.75956110D-03
 -0.84643192D-03  0.86870826D-04  0.71483590D-04 -0.12794744D-02  0.15573841D-02
 -0.31101974D-03  0.33530880D-03 -0.24289063D-04 -0.61839765D-04  0.46358478D-03
 -0.61774365D-03 -0.64942117D-03  0.32535350D-03 -0.19096646D-03  0.73752274D-03
 -0.18673558D-03  0.74529277D-03  0.12107408D-02 -0.78932492D-03 -0.17239340D-03
  0.86664531D-03  0.17068212D-03  0.30804648D-03  0.45477956D-03  0.36405238D-03
 -0.17997774D-03  0.25397120D-03 -0.38376372D-03 -0.68761440D-03  0.16868946D-03
  0.30445014D-03  0.44947015D-03  0.37530230D-03 -0.17147905D-03 -0.89628748D-03
 -0.10609915D-03  0.12909161D-03
MO    2     MO 0.0        OCC NO =    2.0000000  ORB. ENERGY =   -1.128076
 -0.82916590D-01 -0.15482217D+00 -0.26478647D+00 -0.41453244D+00 -0.56698901D+00
 -0.60909367D+00 -0.69024806D+00 -0.21809341D+00  0.27157442D+00  0.17459711D+00
  0.35189639D-01  0.12994236D+00  0.14385307D+00  0.12527650D+00  0.72758975D-01
  0.12037223D+00  0.13325842D+00  0.11605000D+00  0.67400346D-01  0.14645247D+00
  0.16213062D+00  0.14119377D+00  0.82003521D-01  0.24365659D-01  0.21530082D-01
  0.25823155D-01  0.12257336D-02  0.10624308D-02  0.12665860D-02  0.16450082D-01
 -0.20743526D-01  0.42934444D-02  0.60448696D-02 -0.25114141D-01  0.45922258D-01
  0.39494090D-02 -0.44999806D-02  0.55057166D-03  0.28850215D-02 -0.33896088D-02
  0.10226524D-01  0.11235336D-01 -0.76176782D-02  0.27239733D-02 -0.12574498D-01
  0.46720305D-02 -0.12214726D-01 -0.21131511D-01  0.18181004D-01  0.40428061D-02
 -0.10009191D-01  0.23611258D-01  0.42613514D-01  0.62911788D-01  0.21272438D-01
  0.52885063D-03  0.65577190D-02 -0.81654611D-02 -0.15011281D-01  0.22189015D-01
  0.40046655D-01  0.59122247D-01  0.20157190D-01  0.52991922D-03 -0.16533453D-01
 -0.12203695D-02  0.35405465D-02
MO    3     MO 0.0        OCC NO =    2.0000000  ORB. ENERGY =   -0.604423
 -0.94254386D-03 -0.17599214D-02 -0.30099267D-02 -0.47121452D-02 -0.64451759D-02
 -0.69237953D-02 -0.78366758D-02 -0.24761059D-02  0.26669917D-02  0.33710796D-02
  0.15526687D-02  0.89174291D+00  0.98720654D+00  0.85972292D+00  0.49931599D+00
 -0.25552276D+00 -0.28287721D+00 -0.24634766D+00 -0.14307554D+00 -0.69646697D+00
 -0.77102575D+00 -0.67145880D+00 -0.38997461D+00  0.14969265D+00 -0.42177431D-01
 -0.11578694D+00  0.15626260D-01 -0.44371699D-02 -0.12140788D-01  0.78684102D-01
 -0.17634030D-01 -0.61050072D-01  0.45789562D-01  0.20979178D-01 -0.74973871D-01
  0.14385585D-01 -0.34331044D-02 -0.10952481D-01  0.81289934D-02  0.32039737D-02
 -0.13092659D-01  0.64833986D-02  0.61505793D-02  0.33361302D-02 -0.24522557D-01
  0.76151967D-02 -0.17028386D-01  0.50723614D-02 -0.26066935D-01  0.70199952D-02
  0.31706078D-01 -0.37390212D-01 -0.67481721D-01 -0.99625573D-01 -0.58344724D-01
 -0.76268275D-02  0.38767806D-02  0.12250897D-01  0.17992265D-01  0.36771226D-01
  0.66364578D-01  0.97976296D-01  0.57763498D-01  0.77864957D-02 -0.19189847D-01
 -0.77990619D-02 -0.59314371D-02
MO    4     MO 0.0        OCC NO =    2.0000000  ORB. ENERGY =   -0.468763
  0.29197609D-01  0.54517885D-01  0.93239865D-01  0.14597026D+00  0.19965514D+00
  0.21448155D+00  0.24631465D+00  0.77826515D-01 -0.10293291D+00 -0.76102596D-01
 -0.42123293D-01  0.77009705D+00  0.85253815D+00  0.74244503D+00  0.43120250D+00
  0.64631503D+00  0.71550490D+00  0.62310767D+00  0.36189290D+00  0.76240942D+00
  0.84402753D+00  0.73503344D+00  0.42689795D+00  0.13193124D+00  0.11008029D+00
  0.12959980D+00  0.23305394D-01  0.19575778D-01  0.23098538D-01  0.12252824D-01
 -0.15790748D-01  0.35379236D-02  0.33035036D-01  0.19498586D-01  0.55501043D-01
  0.10217168D-02 -0.20331038D-02  0.10113870D-02  0.19629433D-01  0.23478412D-01
  0.19162213D-01  0.81011798D-02 -0.10265681D-01  0.76560579D-04 -0.10310290D-01
  0.92517572D-02 -0.64552030D-02 -0.13993250D-01  0.21545287D-01  0.62255212D-02
  0.12521412D-01  0.21690679D-01  0.39147260D-01  0.57794439D-01  0.36904162D-01
  0.49768690D-02  0.20543892D-01  0.16449297D-02 -0.41971429D-02  0.22325613D-01
  0.40293186D-01  0.59486209D-01  0.38389938D-01  0.55285619D-02 -0.77100551D-02
  0.91012870D-02  0.16863772D-01
MO    5     MO 0.0        OCC NO =    2.0000000  ORB. ENERGY =   -0.397761
 -0.76020175D-07 -0.14194516D-06 -0.24276340D-06 -0.38005457D-06 -0.51983087D-06
 -0.55843356D-06 -0.47083599D-06 -0.14876713D-06 -0.12137847D-06  0.34201595D-06
  0.92887782D-07 -0.25055505D+00 -0.27737769D+00 -0.24155833D+00 -0.14029396D+00
  0.11934793D+01  0.13212447D+01  0.11506248D+01  0.66826807D+00 -0.75866169D+00
 -0.83987860D+00 -0.73142028D+00 -0.42479947D+00 -0.44389577D-01  0.21144456D+00
 -0.13440982D+00 -0.93166034D-02  0.44378346D-01 -0.28210114D-01 -0.57409330D-02
  0.24545297D-01 -0.18804364D-01  0.22198565D-01 -0.23594363D-01  0.13976768D-01
 -0.37423758D-02  0.15354413D-01 -0.11612037D-01  0.14602988D-01 -0.15166466D-01
  0.85067691D-02 -0.51037437D-02 -0.53903897D-02 -0.81290881D-02  0.42814400D-02
  0.23652015D-01 -0.10925243D-01  0.11029791D-01 -0.74808458D-02  0.35312507D-01
 -0.30272252D-01 -0.15644610D-06 -0.28235336D-06 -0.41684792D-06 -0.32109707D-06
 -0.90947924D-07 -0.47978605D-02  0.22853857D-01 -0.14527527D-01  0.19995388D-06
  0.36087605D-06  0.53277365D-06  0.28611588D-06  0.14920134D-06 -0.46999198D-02
  0.22387432D-01 -0.14231130D-01
END DATA
 TOTAL ENERGY =      -76.425706821768 THE VIRIAL(-V/T)=   2.00417304
