 Default is to use a total of   4 processors:
                                4 via shared-memory
                                1 via Linda
 Entering Link 1 = d:\study\G09W\l1.exe PID=      7116.
  
 Copyright (c) 1988,1990,1992,1993,1995,1998,2003,2009,2013,
            Gaussian, Inc.  All Rights Reserved.
  
 This is part of the Gaussian(R) 09 program.  It is based on
 the Gaussian(R) 03 system (copyright 2003, Gaussian, Inc.),
 the Gaussian(R) 98 system (copyright 1998, Gaussian, Inc.),
 the Gaussian(R) 94 system (copyright 1995, Gaussian, Inc.),
 the Gaussian 92(TM) system (copyright 1992, Gaussian, Inc.),
 the Gaussian 90(TM) system (copyright 1990, Gaussian, Inc.),
 the Gaussian 88(TM) system (copyright 1988, Gaussian, Inc.),
 the Gaussian 86(TM) system (copyright 1986, Carnegie Mellon
 University), and the Gaussian 82(TM) system (copyright 1983,
 Carnegie Mellon University). Gaussian is a federally registered
 trademark of Gaussian, Inc.
  
 This software contains proprietary and confidential information,
 including trade secrets, belonging to Gaussian, Inc.
  
 This software is provided under written license and may be
 used, copied, transmitted, or stored only in accord with that
 written license.
  
 The following legend is applicable only to US Government
 contracts under FAR:
  
                    RESTRICTED RIGHTS LEGEND
  
 Use, reproduction and disclosure by the US Government is
 subject to restrictions as set forth in subparagraphs (a)
 and (c) of the Commercial Computer Software - Restricted
 Rights clause in FAR 52.227-19.
  
 Gaussian, Inc.
 340 Quinnipiac St., Bldg. 40, Wallingford CT 06492
  
  
 ---------------------------------------------------------------
 Warning -- This program may not be used in any manner that
 competes with the business of Gaussian, Inc. or will provide
 assistance to any competitor of Gaussian, Inc.  The licensee
 of this program is prohibited from giving any competitor of
 Gaussian, Inc. access to this program.  By using this program,
 the user acknowledges that Gaussian, Inc. is engaged in the
 business of creating and licensing software in the field of
 computational chemistry and represents and warrants to the
 licensee that it is not a competitor of Gaussian, Inc. and that
 it will not use this program in any manner prohibited above.
 ---------------------------------------------------------------
  

 Cite this work as:
 Gaussian 09, Revision D.01,
 M. J. Frisch, G. W. Trucks, H. B. Schlegel, G. E. Scuseria, 
 M. A. Robb, J. R. Cheeseman, G. Scalmani, V. Barone, B. Mennucci, 
 G. A. Petersson, H. Nakatsuji, M. Caricato, X. Li, H. P. Hratchian, 
 A. F. Izmaylov, J. Bloino, G. Zheng, J. L. Sonnenberg, M. Hada, 
 M. Ehara, K. Toyota, R. Fukuda, J. Hasegawa, M. Ishida, T. Nakajima, 
 Y. Honda, O. Kitao, H. Nakai, T. Vreven, J. A. Montgomery, Jr., 
 J. E. Peralta, F. Ogliaro, M. Bearpark, J. J. Heyd, E. Brothers, 
 K. N. Kudin, V. N. Staroverov, T. Keith, R. Kobayashi, J. Normand, 
 K. Raghavachari, A. Rendell, J. C. Burant, S. S. Iyengar, J. Tomasi, 
 M. Cossi, N. Rega, J. M. Millam, M. Klene, J. E. Knox, J. B. Cross, 
 V. Bakken, C. Adamo, J. Jaramillo, R. Gomperts, R. E. Stratmann, 
 O. Yazyev, A. J. Austin, R. Cammi, C. Pomelli, J. W. Ochterski, 
 R. L. Martin, K. Morokuma, V. G. Zakrzewski, G. A. Voth, 
 P. Salvador, J. J. Dannenberg, S. Dapprich, A. D. Daniels, 
 O. Farkas, J. B. Foresman, J. V. Ortiz, J. Cioslowski, 
 and D. J. Fox, Gaussian, Inc., Wallingford CT, 2013.
 
 ******************************************
 Gaussian 09:  IA32W-G09RevD.01 24-Apr-2013
                26-May-2017 
 ******************************************
 %chk=C:\uracil.chk
 -------------------------------
 # PBE1PBE/6-31G* TD IOp(9/40=4)
 -------------------------------
 1/38=1/1;
 2/12=2,17=6,18=5,40=1/2;
 3/5=1,6=6,7=1,11=9,16=1,25=1,30=1,74=-13/1,2,8,3;
 4//1;
 5/5=2,38=5/2;
 8/6=1,10=2/1;
 9/40=4,42=1,70=2/14;
 6/7=2,8=2,9=2,10=2/1;
 99/5=1,9=1/99;
 ------------------
 B3LYP/6-31G* opted
 ------------------
 Symbolic Z-matrix:
 Charge =  0 Multiplicity = 1
 C                    -1.2375    0.36573   0. 
 C                     0.05337  -1.70928   0. 
 C                     1.24152  -1.06801   0. 
 C                     1.282     0.39168   0. 
 H                    -0.02062   2.00141   0. 
 H                    -2.02598  -1.51441   0. 
 H                    -0.03162  -2.79077   0. 
 H                     2.18093  -1.60364   0. 
 N                     0.        0.98771   0. 
 N                    -1.14106  -1.02649   0. 
 O                     2.28466   1.08547   0. 
 O                    -2.30363   0.9518    0. 
 
                          Input orientation:                          
 ---------------------------------------------------------------------
 Center     Atomic      Atomic             Coordinates (Angstroms)
 Number     Number       Type             X           Y           Z
 ---------------------------------------------------------------------
      1          6           0       -1.237498    0.365732    0.000000
      2          6           0        0.053374   -1.709285    0.000000
      3          6           0        1.241520   -1.068011    0.000000
      4          6           0        1.282004    0.391680    0.000000
      5          1           0       -0.020619    2.001414    0.000000
      6          1           0       -2.025976   -1.514408    0.000000
      7          1           0       -0.031619   -2.790767    0.000000
      8          1           0        2.180931   -1.603643    0.000000
      9          7           0        0.000000    0.987713    0.000000
     10          7           0       -1.141059   -1.026490    0.000000
     11          8           0        2.284663    1.085468    0.000000
     12          8           0       -2.303626    0.951800    0.000000
 ---------------------------------------------------------------------
                    Distance matrix (angstroms):
                    1          2          3          4          5
     1  C    0.000000
     2  C    2.443777   0.000000
     3  C    2.863765   1.350157   0.000000
     4  C    2.519636   2.433842   1.460252   0.000000
     5  H    2.038688   3.711436   3.318789   2.070765   0.000000
     6  H    2.038780   2.088461   3.297847   3.817840   4.047525
     7  H    3.378998   1.084817   2.142142   3.442902   4.792193
     8  H    3.945136   2.130178   1.081386   2.188466   4.224128
     9  N    1.385013   2.697526   2.401535   1.413785   1.013910
    10  N    1.395559   1.375819   2.382941   2.807569   3.228558
    11  O    3.594947   3.576213   2.392827   1.219290   2.480581
    12  O    1.216595   3.554830   4.080158   3.629115   2.512729
                    6          7          8          9         10
     6  H    0.000000
     7  H    2.367816   0.000000
     8  H    4.207853   2.510904   0.000000
     9  N    3.219501   3.778612   3.386973   0.000000
    10  N    1.010515   2.084114   3.371754   2.314958   0.000000
    11  O    5.033981   4.515569   2.691111   2.286754   4.024418
    12  O    2.481788   4.378221   5.161544   2.303905   2.294601
                   11         12
    11  O    0.000000
    12  O    4.590235   0.000000
 Stoichiometry    C4H4N2O2
 Framework group  CS[SG(C4H4N2O2)]
 Deg. of freedom    21
 Full point group                 CS      NOp   2
 Largest Abelian subgroup         CS      NOp   2
 Largest concise Abelian subgroup C1      NOp   1
                         Standard orientation:                         
 ---------------------------------------------------------------------
 Center     Atomic      Atomic             Coordinates (Angstroms)
 Number     Number       Type             X           Y           Z
 ---------------------------------------------------------------------
      1          6           0       -1.237498    0.365732    0.000000
      2          6           0        0.053374   -1.709285    0.000000
      3          6           0        1.241520   -1.068011    0.000000
      4          6           0        1.282004    0.391680    0.000000
      5          1           0       -0.020619    2.001414    0.000000
      6          1           0       -2.025976   -1.514408    0.000000
      7          1           0       -0.031619   -2.790767    0.000000
      8          1           0        2.180931   -1.603643    0.000000
      9          7           0        0.000000    0.987713    0.000000
     10          7           0       -1.141059   -1.026490    0.000000
     11          8           0        2.284663    1.085468    0.000000
     12          8           0       -2.303626    0.951800    0.000000
 ---------------------------------------------------------------------
 Rotational constants (GHZ):      3.8739300      2.0030278      1.3203412
 Standard basis: 6-31G(d) (6D, 7F)
 There are    96 symmetry adapted cartesian basis functions of A'  symmetry.
 There are    32 symmetry adapted cartesian basis functions of A"  symmetry.
 There are    96 symmetry adapted basis functions of A'  symmetry.
 There are    32 symmetry adapted basis functions of A"  symmetry.
   128 basis functions,   240 primitive gaussians,   128 cartesian basis functions
    29 alpha electrons       29 beta electrons
       nuclear repulsion energy       355.5761472429 Hartrees.
 NAtoms=   12 NActive=   12 NUniq=   12 SFac= 1.00D+00 NAtFMM=   60 NAOKFM=F Big=F
 Integral buffers will be    262144 words long.
 Regular integral format.
 Two-electron integral symmetry is turned on.
 One-electron integrals computed using PRISM.
 NBasis=   128 RedAO= T EigKep=  1.75D-03  NBF=    96    32
 NBsUse=   128 1.00D-06 EigRej= -1.00D+00 NBFU=    96    32
 ExpMin= 1.61D-01 ExpMax= 5.48D+03 ExpMxC= 8.25D+02 IAcc=1 IRadAn=         1 AccDes= 0.00D+00
 Harris functional with IExCor= 1009 and IRadAn=       1 diagonalized for initial guess.
 HarFok:  IExCor= 1009 AccDes= 0.00D+00 IRadAn=         1 IDoV= 1 UseB2=F ITyADJ=14
 ICtDFT=  3500011 ScaDFX=  1.000000  1.000000  1.000000  1.000000
 FoFCou: FMM=F IPFlag=           0 FMFlag=      100000 FMFlg1=           0
         NFxFlg=           0 DoJE=T BraDBF=F KetDBF=T FulRan=T
         wScrn=  0.000000 ICntrl=     500 IOpCl=  0 I1Cent=   200000004 NGrid=           0
         NMat0=    1 NMatS0=      1 NMatT0=    0 NMatD0=    1 NMtDS0=    0 NMtDT0=    0
 Petite list used in FoFCou.
 Initial guess orbital symmetries:
       Occupied  (A') (A') (A') (A') (A') (A') (A') (A') (A') (A')
                 (A') (A') (A') (A') (A') (A') (A') (A') (A') (A')
                 (A") (A') (A') (A") (A") (A') (A') (A") (A")
       Virtual   (A") (A") (A') (A") (A') (A') (A') (A') (A') (A')
                 (A') (A') (A') (A') (A') (A") (A') (A') (A') (A")
                 (A') (A") (A') (A') (A') (A") (A") (A') (A') (A')
                 (A') (A') (A") (A') (A') (A') (A') (A") (A") (A')
                 (A') (A') (A') (A") (A') (A') (A") (A') (A") (A")
                 (A") (A') (A") (A') (A') (A') (A') (A") (A") (A')
                 (A') (A') (A') (A') (A') (A") (A') (A") (A') (A')
                 (A') (A") (A') (A") (A') (A") (A') (A') (A") (A')
                 (A") (A') (A") (A') (A') (A') (A') (A') (A') (A')
                 (A') (A') (A') (A') (A') (A') (A') (A') (A')
 The electronic state of the initial guess is 1-A'.
 Keep R1 ints in memory in symmetry-blocked form, NReq=52323196.
 Requested convergence on RMS density matrix=1.00D-08 within 128 cycles.
 Requested convergence on MAX density matrix=1.00D-06.
 Requested convergence on             energy=1.00D-06.
 No special actions if energy rises.
 Integral accuracy reduced to 1.0D-05 until final iterations.
 Initial convergence to 1.0D-05 achieved.  Increase integral accuracy.
 SCF Done:  E(RPBE1PBE) =  -414.365179741     A.U. after   15 cycles
            NFock= 15  Conv=0.97D-08     -V/T= 2.0086
 DoSCS=F DFT=T ScalE2(SS,OS)=  1.000000  1.000000
 ExpMin= 1.61D-01 ExpMax= 5.48D+03 ExpMxC= 8.25D+02 IAcc=3 IRadAn=         5 AccDes= 0.00D+00
 HarFok:  IExCor=  205 AccDes= 0.00D+00 IRadAn=         5 IDoV=-2 UseB2=F ITyADJ=14
 ICtDFT= 12500011 ScaDFX=  1.000000  1.000000  1.000000  1.000000
 Range of M.O.s used for correlation:     9   128
 NBasis=   128 NAE=    29 NBE=    29 NFC=     8 NFV=     0
 NROrb=    120 NOA=    21 NOB=    21 NVA=    99 NVB=    99
 Keep R1, R2, and R3 ints in memory in symmetry-blocked form, NReq=72649054.
 Orbital symmetries:
       Occupied  (A') (A') (A') (A') (A') (A') (A') (A') (A') (A')
                 (A') (A') (A') (A') (A') (A') (A') (A') (A") (A')
                 (A') (A') (A') (A") (A") (A') (A") (A') (A")
       Virtual   (A") (A") (A') (A') (A') (A") (A') (A') (A') (A')
                 (A') (A') (A') (A') (A') (A") (A') (A') (A') (A")
                 (A') (A") (A') (A') (A") (A') (A") (A') (A') (A')
                 (A') (A') (A") (A') (A') (A') (A') (A") (A') (A")
                 (A') (A') (A') (A") (A') (A') (A") (A') (A") (A")
                 (A') (A") (A") (A') (A') (A') (A') (A') (A") (A")
                 (A') (A') (A') (A') (A') (A") (A") (A') (A') (A')
                 (A") (A') (A') (A") (A") (A') (A') (A') (A") (A')
                 (A") (A') (A") (A') (A') (A') (A') (A') (A') (A')
                 (A') (A') (A') (A') (A') (A') (A') (A') (A')
    12 initial guesses have been made.
 Convergence on wavefunction:    0.001000000000000
 Iteration     1 Dimension    12 NMult     0 NNew     12
 CISAX will form    12 AO SS matrices at one time.
 New state      1 was old state      2
 New state      2 was old state      1
 New state      3 was old state      4
 Iteration     2 Dimension    18 NMult    12 NNew      6
 Iteration     3 Dimension    24 NMult    18 NNew      6
 Iteration     4 Dimension    30 NMult    24 NNew      6
 Iteration     5 Dimension    32 NMult    30 NNew      2
 Iteration     6 Dimension    34 NMult    32 NNew      2
 ***********************************************************************
 Excited states from <AA,BB:AA,BB> singles matrix:
 ***********************************************************************
 
 Ground to excited state transition densities written to RWF  633
 Ground to excited state transition electric dipole moments (Au):
       state          X           Y           Z        Dip. S.      Osc.
         1         0.0000      0.0000      0.0307      0.0009      0.0001
         2         0.9147      0.3931      0.0000      0.9912      0.1317
         3         0.0000      0.0000     -0.0025      0.0000      0.0000
 Ground to excited state transition velocity dipole moments (Au):
       state          X           Y           Z        Dip. S.      Osc.
         1         0.0000      0.0000     -0.0128      0.0002      0.0006
         2        -0.1902     -0.0738      0.0000      0.0416      0.1392
         3         0.0000      0.0000     -0.0079      0.0001      0.0002
 Ground to excited state transition magnetic dipole moments (Au):
       state          X           Y           Z
         1         0.4775      0.5252      0.0000
         2         0.0000      0.0000     -1.5424
         3         0.5898     -0.2580      0.0000
 Ground to excited state transition velocity quadrupole moments (Au):
       state          XX          YY          ZZ          XY          XZ          YZ
         1         0.0000      0.0000      0.0000      0.0000     -0.0541      0.0167
         2        -0.2304      0.2076     -0.0153      0.0857      0.0000      0.0000
         3         0.0000      0.0000      0.0000      0.0000      0.0257      0.0201
 <0|del|b> * <b|rxdel|0> + <0|del|b> * <b|delr+rdel|0>
 Rotatory Strengths (R) in cgs (10**-40 erg-esu-cm/Gauss)
       state          XX          YY          ZZ    R(velocity)    E-M Angle
         1         0.0000      0.0000      0.0000      0.0000       90.00
         2         0.0000      0.0000      0.0000      0.0000       90.00
         3         0.0000      0.0000      0.0000      0.0000       90.00
 1/2[<0|r|b>*<b|rxdel|0> + (<0|rxdel|b>*<b|r|0>)*]
 Rotatory Strengths (R) in cgs (10**-40 erg-esu-cm/Gauss)
       state          XX          YY          ZZ     R(length)
         1         0.0000      0.0000      0.0000      0.0000
         2         0.0000      0.0000      0.0000      0.0000
         3         0.0000      0.0000      0.0000      0.0000
  1/2[<0|del|b>*<b|r|0> + (<0|r|b>*<b|del|0>)*] (Au)
       state          X           Y           Z        Dip. S.   Osc.(frdel)
         1         0.0000      0.0000     -0.0004      0.0004      0.0003
         2        -0.1740     -0.0290      0.0000      0.2030      0.1353
         3         0.0000      0.0000      0.0000      0.0000      0.0000

 Excitation energies and oscillator strengths:
 
 Excited State   1:      Singlet-A"     4.7968 eV  258.47 nm  f=0.0001  <S**2>=0.000
       9 -> 30        -0.00071
       9 -> 31        -0.00043
       9 -> 35         0.00028
       9 -> 67        -0.00011
       9 -> 73        -0.00016
       9 -> 76         0.00012
       9 -> 78        -0.00015
       9 -> 79        -0.00020
       9 -> 81        -0.00011
       9 -> 82         0.00023
       9 -> 88        -0.00021
       9 -> 89        -0.00059
      10 -> 30        -0.00194
      10 -> 31        -0.00053
      10 -> 35         0.00055
      10 -> 54         0.00039
      10 -> 56         0.00022
      10 -> 62        -0.00021
      10 -> 67        -0.00010
      10 -> 69         0.00010
      10 -> 73        -0.00084
      10 -> 78         0.00021
      10 -> 79        -0.00080
      10 -> 82         0.00085
      10 -> 88        -0.00102
      10 -> 89        -0.00196
      10 -> 96         0.00032
      10 ->103         0.00017
      11 -> 30        -0.00010
      11 -> 31         0.00021
      11 -> 49         0.00015
      11 -> 51        -0.00016
      11 -> 54        -0.00021
      11 -> 62         0.00015
      11 -> 73         0.00042
      11 -> 76         0.00025
      11 -> 78        -0.00029
      11 -> 79         0.00021
      11 -> 81        -0.00022
      11 -> 88         0.00023
      11 -> 89         0.00058
      12 -> 30        -0.00050
      12 -> 31        -0.00120
      12 -> 35         0.00060
      12 -> 51        -0.00036
      12 -> 56        -0.00025
      12 -> 62         0.00030
      12 -> 67        -0.00011
      12 -> 69        -0.00028
      12 -> 73         0.00064
      12 -> 76         0.00024
      12 -> 78        -0.00085
      12 -> 81        -0.00026
      12 -> 82        -0.00060
      12 -> 88         0.00040
      12 -> 89         0.00076
      12 ->108        -0.00015
      12 ->112         0.00012
      13 -> 30        -0.00194
      13 -> 31         0.00139
      13 -> 35        -0.00121
      13 -> 45        -0.00012
      13 -> 49         0.00033
      13 -> 51        -0.00015
      13 -> 54        -0.00079
      13 -> 73         0.00018
      13 -> 76         0.00036
      13 -> 78        -0.00017
      13 -> 79         0.00023
      13 -> 81        -0.00042
      13 -> 82         0.00042
      13 -> 88         0.00020
      13 -> 89         0.00046
      13 -> 95        -0.00035
      14 -> 30        -0.00219
      14 -> 31        -0.00070
      14 -> 35         0.00023
      14 -> 45         0.00019
      14 -> 51         0.00016
      14 -> 54        -0.00027
      14 -> 62        -0.00018
      14 -> 67         0.00019
      14 -> 69         0.00030
      14 -> 73        -0.00052
      14 -> 81        -0.00013
      14 -> 82         0.00020
      14 -> 89         0.00034
      14 -> 95        -0.00039
      14 -> 96        -0.00011
      14 ->103        -0.00015
      14 ->104         0.00016
      15 -> 30        -0.00114
      15 -> 31        -0.00113
      15 -> 35         0.00348
      15 -> 49         0.00012
      15 -> 56        -0.00070
      15 -> 62         0.00083
      15 -> 67        -0.00033
      15 -> 69        -0.00049
      15 -> 73         0.00060
      15 -> 76         0.00058
      15 -> 78        -0.00112
      15 -> 79        -0.00048
      15 -> 81        -0.00028
      15 -> 82        -0.00052
      15 -> 88         0.00052
      15 -> 89         0.00059
      15 -> 95         0.00012
      15 ->104         0.00022
      15 ->108        -0.00020
      15 ->112         0.00024
      16 -> 30         0.00195
      16 -> 31        -0.00145
      16 -> 35         0.00294
      16 -> 45         0.00030
      16 -> 54         0.00022
      16 -> 56        -0.00044
      16 -> 62         0.00061
      16 -> 67        -0.00042
      16 -> 69        -0.00046
      16 -> 73         0.00054
      16 -> 76         0.00052
      16 -> 78        -0.00071
      16 -> 79        -0.00019
      16 -> 81        -0.00073
      16 ->104        -0.00014
      16 ->108        -0.00016
      16 ->112         0.00012
      17 -> 30        -0.00260
      17 -> 31         0.00472
      17 -> 35        -0.00600
      17 -> 45         0.00032
      17 -> 49        -0.00022
      17 -> 51        -0.00118
      17 -> 54        -0.00082
      17 -> 56        -0.00096
      17 -> 62         0.00092
      17 -> 67        -0.00089
      17 -> 69        -0.00113
      17 -> 73         0.00102
      17 -> 76         0.00032
      17 -> 78        -0.00097
      17 -> 79         0.00034
      17 -> 81        -0.00055
      17 -> 82        -0.00055
      17 -> 89        -0.00028
      17 -> 95         0.00074
      17 -> 96         0.00046
      17 ->100        -0.00018
      17 ->104        -0.00030
      17 ->112         0.00011
      18 -> 30        -0.00090
      18 -> 31         0.00219
      18 -> 35        -0.00330
      18 -> 45         0.00013
      18 -> 54        -0.00038
      18 -> 56         0.00024
      18 -> 62        -0.00026
      18 -> 73        -0.00017
      18 -> 76        -0.00016
      18 -> 78         0.00034
      18 -> 79         0.00038
      18 -> 81         0.00010
      18 -> 82         0.00062
      18 -> 95        -0.00020
      18 -> 96         0.00019
      18 ->108         0.00016
      19 -> 32         0.00026
      19 -> 34        -0.00057
      19 -> 36        -0.00014
      19 -> 37        -0.00029
      19 -> 38         0.00044
      19 -> 41        -0.00049
      19 -> 42         0.00065
      19 -> 43        -0.00072
      19 -> 44         0.00038
      19 -> 46         0.00054
      19 -> 47        -0.00035
      19 -> 48         0.00053
      19 -> 50        -0.00023
      19 -> 52         0.00042
      19 -> 55        -0.00020
      19 -> 58        -0.00027
      19 -> 59         0.00011
      19 -> 61         0.00024
      19 -> 63         0.00023
      19 -> 64        -0.00015
      19 -> 65        -0.00022
      19 -> 68         0.00036
      19 -> 74         0.00013
      19 -> 75        -0.00035
      19 -> 80        -0.00013
      19 -> 85         0.00026
      19 -> 92         0.00031
      19 -> 93        -0.00016
      19 -> 97        -0.00017
      19 -> 98         0.00022
      19 -> 99         0.00015
      19 ->102         0.00011
      19 ->106         0.00011
      20 -> 30        -0.00054
      20 -> 31         0.00545
      20 -> 35        -0.00650
      20 -> 45         0.00046
      20 -> 51        -0.00075
      20 -> 54        -0.00094
      20 -> 56        -0.00032
      20 -> 62         0.00020
      20 -> 67        -0.00073
      20 -> 69        -0.00072
      20 -> 73         0.00064
      20 -> 76         0.00064
      20 -> 78        -0.00063
      20 -> 79         0.00052
      20 -> 81        -0.00066
      20 -> 82         0.00037
      20 -> 88        -0.00047
      20 -> 89        -0.00092
      20 -> 96         0.00046
      20 ->100        -0.00042
      20 ->103         0.00038
      20 ->104        -0.00050
      20 ->108        -0.00010
      20 ->110         0.00019
      21 -> 30         0.00446
      21 -> 31         0.00015
      21 -> 35         0.00080
      21 -> 49         0.00018
      21 -> 54        -0.00028
      21 -> 62        -0.00030
      21 -> 67        -0.00014
      21 -> 73         0.00018
      21 -> 76         0.00035
      21 -> 79         0.00024
      21 -> 81        -0.00061
      21 -> 82         0.00102
      21 -> 89         0.00036
      21 -> 95        -0.00027
      21 ->100        -0.00026
      21 ->103        -0.00021
      21 ->110        -0.00014
      22 -> 30         0.00433
      22 -> 31         0.00825
      22 -> 35        -0.00626
      22 -> 45         0.00042
      22 -> 51        -0.00021
      22 -> 56        -0.00041
      22 -> 62         0.00094
      22 -> 67        -0.00081
      22 -> 69        -0.00121
      22 -> 73         0.00071
      22 -> 78        -0.00103
      22 -> 79        -0.00046
      22 -> 81         0.00019
      22 -> 82        -0.00107
      22 -> 88        -0.00021
      22 -> 89        -0.00072
      22 -> 95         0.00049
      22 -> 96         0.00019
      22 ->100         0.00012
      22 ->103         0.00064
      22 ->108        -0.00015
      22 ->110         0.00028
      22 ->112         0.00013
      23 -> 30        -0.00214
      23 -> 31        -0.01118
      23 -> 35         0.01065
      23 -> 45        -0.00035
      23 -> 49         0.00024
      23 -> 51         0.00116
      23 -> 54         0.00057
      23 -> 56         0.00041
      23 -> 62        -0.00056
      23 -> 67         0.00096
      23 -> 69         0.00124
      23 -> 73        -0.00074
      23 -> 76        -0.00012
      23 -> 78         0.00055
      23 -> 79        -0.00043
      23 -> 81         0.00011
      23 -> 82         0.00051
      23 -> 88        -0.00046
      23 -> 89        -0.00087
      23 -> 95        -0.00066
      23 -> 96         0.00027
      23 ->100        -0.00040
      23 ->103         0.00050
      23 ->104         0.00015
      23 ->110         0.00036
      24 -> 32        -0.00084
      24 -> 33         0.00110
      24 -> 36        -0.00088
      24 -> 37         0.00178
      24 -> 38         0.00301
      24 -> 39        -0.00021
      24 -> 40         0.00063
      24 -> 41        -0.00176
      24 -> 42         0.00105
      24 -> 43         0.00012
      24 -> 44         0.00049
      24 -> 46         0.00064
      24 -> 47        -0.00041
      24 -> 48         0.00018
      24 -> 52         0.00037
      24 -> 53        -0.00021
      24 -> 55        -0.00039
      24 -> 57         0.00014
      24 -> 58        -0.00043
      24 -> 59         0.00028
      24 -> 61         0.00017
      24 -> 63         0.00018
      24 -> 65        -0.00027
      24 -> 66        -0.00025
      24 -> 68         0.00080
      24 -> 70         0.00021
      24 -> 71         0.00022
      24 -> 72        -0.00041
      24 -> 74         0.00044
      24 -> 75        -0.00072
      24 -> 77         0.00015
      24 -> 80        -0.00024
      24 -> 85         0.00043
      24 -> 86        -0.00019
      24 -> 92         0.00044
      24 -> 93        -0.00022
      24 -> 94        -0.00015
      24 -> 97        -0.00011
      24 -> 98         0.00019
      24 -> 99         0.00020
      24 ->101         0.00013
      24 ->102         0.00012
      24 ->106         0.00015
      24 ->111         0.00021
      24 ->115         0.00013
      25 -> 32         0.00047
      25 -> 33        -0.00030
      25 -> 34        -0.00130
      25 -> 36        -0.00023
      25 -> 37        -0.00174
      25 -> 38         0.00102
      25 -> 39         0.00029
      25 -> 40         0.00072
      25 -> 41        -0.00088
      25 -> 42        -0.00062
      25 -> 44         0.00088
      25 -> 46         0.00040
      25 -> 47        -0.00085
      25 -> 48         0.00097
      25 -> 50         0.00065
      25 -> 52         0.00046
      25 -> 53         0.00016
      25 -> 55        -0.00010
      25 -> 57        -0.00023
      25 -> 61         0.00025
      25 -> 63         0.00048
      25 -> 64        -0.00013
      25 -> 65         0.00023
      25 -> 66        -0.00028
      25 -> 68         0.00029
      25 -> 70        -0.00011
      25 -> 74        -0.00021
      25 -> 75        -0.00015
      25 -> 77        -0.00042
      25 -> 80         0.00011
      25 -> 85         0.00010
      25 -> 93        -0.00025
      25 -> 94         0.00011
      25 -> 97        -0.00025
      25 -> 99         0.00018
      25 ->101        -0.00011
      25 ->105        -0.00010
      25 ->107        -0.00024
      26 -> 30         0.11588
      26 -> 31         0.05029
      26 -> 35        -0.02193
      26 -> 45         0.00099
      26 -> 49         0.00042
      26 -> 51         0.00029
      26 -> 54        -0.00037
      26 -> 62         0.00083
      26 -> 67        -0.00237
      26 -> 69        -0.00325
      26 -> 73         0.00119
      26 -> 76         0.00025
      26 -> 78        -0.00144
      26 -> 79        -0.00075
      26 -> 81        -0.00079
      26 -> 88         0.00018
      26 -> 95         0.00036
      26 -> 96         0.00020
      26 ->103         0.00011
      26 ->110         0.00014
      26 ->112         0.00011
      27 -> 32        -0.00147
      27 -> 33        -0.00245
      27 -> 34         0.00026
      27 -> 36         0.00057
      27 -> 37        -0.00077
      27 -> 38        -0.00396
      27 -> 40        -0.00117
      27 -> 41         0.00253
      27 -> 42         0.00012
      27 -> 43        -0.00100
      27 -> 44        -0.00143
      27 -> 46         0.00041
      27 -> 47         0.00025
      27 -> 48         0.00021
      27 -> 50        -0.00057
      27 -> 52         0.00049
      27 -> 53         0.00044
      27 -> 55        -0.00022
      27 -> 57         0.00020
      27 -> 58        -0.00023
      27 -> 59        -0.00046
      27 -> 60         0.00014
      27 -> 65        -0.00038
      27 -> 66         0.00072
      27 -> 68        -0.00067
      27 -> 71        -0.00016
      27 -> 72         0.00084
      27 -> 74        -0.00027
      27 -> 75         0.00025
      27 -> 77        -0.00012
      27 -> 84         0.00017
      27 -> 86         0.00019
      27 -> 94        -0.00012
      27 -> 99        -0.00018
      27 ->107         0.00011
      27 ->111        -0.00018
      28 -> 30         0.67734
      28 -> 31         0.13625
      28 -> 35        -0.07552
      28 -> 45         0.00240
      28 -> 49         0.00115
      28 -> 51         0.00118
      28 -> 54        -0.00031
      28 -> 56         0.00109
      28 -> 62         0.00197
      28 -> 67        -0.00670
      28 -> 69        -0.00678
      28 -> 73         0.00105
      28 -> 76         0.00067
      28 -> 78        -0.00232
      28 -> 79        -0.00076
      28 -> 81        -0.00140
      28 -> 82         0.00024
      28 -> 88         0.00047
      28 -> 89         0.00026
      28 -> 95         0.00086
      28 -> 96         0.00032
      28 ->100         0.00019
      28 ->103         0.00018
      28 ->110         0.00014
      28 ->112         0.00011
      29 -> 32        -0.00497
      29 -> 33        -0.00348
      29 -> 34        -0.00213
      29 -> 36        -0.00218
      29 -> 37        -0.00406
      29 -> 38        -0.00149
      29 -> 39         0.00076
      29 -> 40        -0.00016
      29 -> 41        -0.00020
      29 -> 42        -0.00079
      29 -> 43         0.00128
      29 -> 44         0.00058
      29 -> 46         0.00216
      29 -> 47        -0.00145
      29 -> 48         0.00187
      29 -> 50         0.00120
      29 -> 52         0.00147
      29 -> 53         0.00053
      29 -> 55        -0.00068
      29 -> 57         0.00017
      29 -> 58        -0.00032
      29 -> 61         0.00016
      29 -> 63         0.00061
      29 -> 64        -0.00020
      29 -> 66         0.00021
      29 -> 70        -0.00012
      29 -> 72         0.00057
      29 -> 74        -0.00050
      29 -> 75        -0.00020
      29 -> 77        -0.00078
      29 -> 83        -0.00020
      29 -> 85         0.00047
      29 -> 86         0.00022
      29 -> 87         0.00015
      29 -> 90        -0.00029
      29 -> 91         0.00011
      29 -> 92         0.00022
      29 -> 93        -0.00052
      29 -> 97        -0.00046
      29 -> 98         0.00013
      29 -> 99         0.00016
      29 ->105        -0.00011
      29 ->107        -0.00023
      29 ->109         0.00032
      29 ->115         0.00010
       9 <- 30        -0.00026
       9 <- 31        -0.00024
       9 <- 35         0.00012
       9 <- 56         0.00015
       9 <- 73        -0.00012
       9 <- 79        -0.00014
       9 <- 82         0.00021
       9 <- 88        -0.00020
       9 <- 89        -0.00058
      10 <- 30        -0.00094
      10 <- 31        -0.00040
      10 <- 35         0.00036
      10 <- 45        -0.00011
      10 <- 54         0.00026
      10 <- 56         0.00022
      10 <- 62        -0.00025
      10 <- 73        -0.00052
      10 <- 78         0.00016
      10 <- 79        -0.00055
      10 <- 82         0.00060
      10 <- 88        -0.00099
      10 <- 89        -0.00188
      10 <- 96         0.00038
      10 <-100        -0.00016
      10 <-103         0.00033
      11 <- 31         0.00018
      11 <- 49         0.00013
      11 <- 54        -0.00013
      11 <- 56         0.00011
      11 <- 73         0.00017
      11 <- 76         0.00020
      11 <- 78        -0.00023
      11 <- 79         0.00013
      11 <- 81        -0.00012
      11 <- 88         0.00020
      11 <- 89         0.00051
      12 <- 30        -0.00016
      12 <- 31        -0.00057
      12 <- 35        -0.00016
      12 <- 51        -0.00010
      12 <- 73         0.00032
      12 <- 78        -0.00044
      12 <- 82        -0.00032
      12 <- 88         0.00033
      12 <- 89         0.00069
      12 <- 96        -0.00010
      12 <-103        -0.00022
      12 <-104         0.00011
      13 <- 30        -0.00182
      13 <- 31         0.00057
      13 <- 35        -0.00063
      13 <- 45        -0.00046
      13 <- 49         0.00036
      13 <- 51        -0.00029
      13 <- 54        -0.00039
      13 <- 62        -0.00011
      13 <- 67        -0.00018
      13 <- 73        -0.00014
      13 <- 76         0.00033
      13 <- 78        -0.00025
      13 <- 79        -0.00026
      13 <- 81        -0.00041
      13 <- 82         0.00051
      13 <- 88         0.00017
      13 <- 89         0.00033
      13 <- 95        -0.00024
      13 <-103        -0.00010
      13 <-104         0.00017
      14 <- 30        -0.00183
      14 <- 35        -0.00022
      14 <- 45        -0.00016
      14 <- 49         0.00013
      14 <- 51        -0.00026
      14 <- 54        -0.00021
      14 <- 67        -0.00016
      14 <- 73        -0.00064
      14 <- 76         0.00015
      14 <- 78        -0.00031
      14 <- 79        -0.00048
      14 <- 82         0.00016
      14 <- 89         0.00010
      14 <- 95        -0.00021
      14 <- 96        -0.00010
      14 <-103        -0.00018
      14 <-104         0.00017
      15 <- 30        -0.00137
      15 <- 31        -0.00112
      15 <- 35         0.00066
      15 <- 45        -0.00023
      15 <- 49        -0.00017
      15 <- 51        -0.00025
      15 <- 56         0.00014
      15 <- 62        -0.00013
      15 <- 73        -0.00011
      15 <- 76         0.00023
      15 <- 78        -0.00060
      15 <- 79        -0.00038
      15 <- 88         0.00034
      15 <- 89         0.00035
      15 <- 96        -0.00010
      15 <-103        -0.00018
      15 <-104         0.00024
      15 <-108        -0.00015
      15 <-110        -0.00013
      15 <-112         0.00016
      16 <- 30         0.00050
      16 <- 31        -0.00138
      16 <- 35         0.00124
      16 <- 45         0.00018
      16 <- 54         0.00014
      16 <- 73         0.00021
      16 <- 76         0.00027
      16 <- 78        -0.00034
      16 <- 81        -0.00039
      16 <- 95        -0.00010
      16 <-104        -0.00014
      17 <- 30         0.00165
      17 <- 31        -0.00046
      17 <- 35         0.00018
      17 <- 51         0.00016
      17 <- 67         0.00033
      17 <- 69         0.00016
      17 <- 73         0.00095
      17 <- 76        -0.00015
      17 <- 79         0.00088
      17 <- 81        -0.00031
      17 <- 82        -0.00033
      17 <- 89        -0.00011
      17 <- 95         0.00029
      17 <- 96         0.00027
      17 <-100        -0.00015
      17 <-104        -0.00023
      18 <- 30        -0.00017
      18 <- 31         0.00081
      18 <- 35        -0.00059
      18 <- 49         0.00015
      18 <- 54        -0.00021
      18 <- 73        -0.00023
      18 <- 78         0.00014
      18 <- 82         0.00038
      18 <- 89         0.00010
      18 <- 96         0.00014
      19 <- 34         0.00012
      19 <- 36         0.00024
      19 <- 37         0.00018
      19 <- 38        -0.00024
      19 <- 39        -0.00027
      19 <- 40         0.00033
      19 <- 41        -0.00031
      19 <- 42         0.00117
      19 <- 43        -0.00073
      19 <- 44        -0.00026
      19 <- 46         0.00043
      19 <- 47         0.00026
      19 <- 48         0.00058
      19 <- 50        -0.00012
      19 <- 52         0.00107
      19 <- 53         0.00060
      19 <- 55        -0.00042
      19 <- 57         0.00017
      19 <- 58        -0.00011
      19 <- 59         0.00032
      19 <- 61         0.00018
      19 <- 63        -0.00026
      19 <- 64        -0.00020
      19 <- 65        -0.00014
      19 <- 71        -0.00030
      19 <- 72         0.00030
      19 <- 75        -0.00042
      19 <- 83         0.00022
      19 <- 84         0.00012
      19 <- 85         0.00026
      19 <- 86         0.00055
      19 <- 90        -0.00024
      19 <- 91         0.00020
      19 <- 93        -0.00016
      19 <- 97        -0.00032
      19 <- 98         0.00023
      20 <- 30         0.00080
      20 <- 31         0.00012
      20 <- 49         0.00025
      20 <- 54        -0.00033
      20 <- 56        -0.00012
      20 <- 73         0.00062
      20 <- 76         0.00037
      20 <- 78        -0.00011
      20 <- 79         0.00049
      20 <- 81        -0.00050
      20 <- 82         0.00022
      20 <- 88        -0.00030
      20 <- 89        -0.00050
      20 <- 96         0.00029
      20 <-100        -0.00040
      20 <-103         0.00031
      20 <-104        -0.00039
      20 <-110         0.00016
      21 <- 30        -0.00016
      21 <- 31        -0.00039
      21 <- 35         0.00078
      21 <- 45        -0.00022
      21 <- 49         0.00024
      21 <- 51        -0.00019
      21 <- 54        -0.00022
      21 <- 67        -0.00024
      21 <- 76         0.00038
      21 <- 78        -0.00016
      21 <- 81        -0.00049
      21 <- 82         0.00078
      21 <- 89         0.00026
      21 <- 95        -0.00018
      21 <-100        -0.00025
      21 <-103        -0.00015
      21 <-110        -0.00011
      22 <- 30        -0.00090
      22 <- 31        -0.00038
      22 <- 35        -0.00037
      22 <- 45         0.00014
      22 <- 49        -0.00022
      22 <- 51         0.00019
      22 <- 67         0.00032
      22 <- 69         0.00020
      22 <- 73         0.00034
      22 <- 76        -0.00023
      22 <- 78        -0.00010
      22 <- 81         0.00040
      22 <- 82        -0.00075
      22 <- 88        -0.00019
      22 <- 89        -0.00047
      22 <- 95         0.00017
      22 <-100         0.00013
      22 <-103         0.00044
      22 <-110         0.00018
      23 <- 30        -0.00069
      23 <- 31         0.00050
      23 <- 35        -0.00044
      23 <- 51        -0.00023
      23 <- 54        -0.00017
      23 <- 56         0.00011
      23 <- 67        -0.00042
      23 <- 69        -0.00037
      23 <- 73        -0.00075
      23 <- 76         0.00019
      23 <- 78        -0.00042
      23 <- 79        -0.00080
      23 <- 82         0.00044
      23 <- 88        -0.00019
      23 <- 89        -0.00050
      23 <- 95        -0.00026
      23 <- 96         0.00021
      23 <-100        -0.00025
      23 <-103         0.00034
      23 <-104         0.00011
      23 <-108        -0.00015
      23 <-110         0.00029
      23 <-112         0.00013
      24 <- 32        -0.00096
      24 <- 37         0.00148
      24 <- 38        -0.00120
      24 <- 39         0.00083
      24 <- 40         0.00016
      24 <- 41         0.00193
      24 <- 42         0.00285
      24 <- 43        -0.00107
      24 <- 44        -0.00223
      24 <- 47         0.00119
      24 <- 48         0.00073
      24 <- 50         0.00017
      24 <- 52         0.00273
      24 <- 53         0.00143
      24 <- 55        -0.00102
      24 <- 57         0.00040
      24 <- 58        -0.00043
      24 <- 59        -0.00015
      24 <- 60        -0.00017
      24 <- 61         0.00018
      24 <- 63        -0.00053
      24 <- 65        -0.00073
      24 <- 66         0.00027
      24 <- 68        -0.00060
      24 <- 71        -0.00071
      24 <- 72         0.00089
      24 <- 74        -0.00046
      24 <- 75        -0.00076
      24 <- 77        -0.00018
      24 <- 83         0.00034
      24 <- 85         0.00036
      24 <- 86         0.00108
      24 <- 87         0.00024
      24 <- 90        -0.00057
      24 <- 91         0.00058
      24 <- 93        -0.00025
      24 <- 94         0.00010
      24 <- 97        -0.00061
      24 <- 98         0.00018
      24 <-101         0.00014
      24 <-105         0.00027
      24 <-106         0.00018
      24 <-111         0.00012
      25 <- 32         0.00069
      25 <- 33        -0.00052
      25 <- 34        -0.00091
      25 <- 37        -0.00237
      25 <- 38         0.00026
      25 <- 39        -0.00017
      25 <- 41        -0.00063
      25 <- 42        -0.00049
      25 <- 43         0.00033
      25 <- 44         0.00047
      25 <- 46         0.00059
      25 <- 47        -0.00117
      25 <- 48         0.00064
      25 <- 50        -0.00010
      25 <- 52         0.00109
      25 <- 53         0.00029
      25 <- 55        -0.00045
      25 <- 58        -0.00013
      25 <- 59        -0.00019
      25 <- 60         0.00019
      25 <- 61         0.00025
      25 <- 63         0.00029
      25 <- 65         0.00021
      25 <- 66        -0.00010
      25 <- 68         0.00027
      25 <- 71        -0.00020
      25 <- 72        -0.00030
      25 <- 74        -0.00027
      25 <- 75        -0.00018
      25 <- 77        -0.00051
      25 <- 85         0.00019
      25 <- 87         0.00011
      25 <- 91         0.00019
      25 <- 93        -0.00019
      25 <- 97        -0.00012
      25 <- 98         0.00015
      25 <- 99         0.00023
      25 <-107        -0.00019
      26 <- 30        -0.00456
      26 <- 31        -0.00308
      26 <- 35         0.00192
      26 <- 45        -0.00013
      26 <- 54        -0.00023
      26 <- 62        -0.00013
      26 <- 67         0.00034
      26 <- 69         0.00052
      26 <- 73        -0.00033
      26 <- 78        -0.00011
      26 <- 79        -0.00022
      26 <- 82         0.00012
      27 <- 32         0.00097
      27 <- 33         0.00090
      27 <- 34         0.00067
      27 <- 38         0.00321
      27 <- 39        -0.00193
      27 <- 40         0.00027
      27 <- 41        -0.00336
      27 <- 42        -0.00104
      27 <- 43         0.00044
      27 <- 44         0.00295
      27 <- 46         0.00056
      27 <- 47        -0.00035
      27 <- 48        -0.00082
      27 <- 52        -0.00219
      27 <- 53        -0.00118
      27 <- 55         0.00090
      27 <- 59         0.00084
      27 <- 61         0.00025
      27 <- 63         0.00016
      27 <- 64        -0.00048
      27 <- 65         0.00066
      27 <- 66        -0.00011
      27 <- 68         0.00133
      27 <- 71         0.00086
      27 <- 72        -0.00096
      27 <- 74         0.00077
      27 <- 77         0.00074
      27 <- 80        -0.00010
      27 <- 84         0.00017
      27 <- 86        -0.00046
      27 <- 87        -0.00023
      27 <- 90         0.00014
      27 <- 91        -0.00031
      27 <- 92         0.00017
      27 <- 94        -0.00018
      27 <- 97         0.00026
      27 <- 99        -0.00021
      27 <-102         0.00017
      27 <-105        -0.00022
      27 <-111        -0.00015
      28 <- 30        -0.01141
      28 <- 31        -0.00546
      28 <- 35         0.00468
      28 <- 45        -0.00027
      28 <- 49         0.00024
      28 <- 54        -0.00059
      28 <- 62        -0.00055
      28 <- 67         0.00110
      28 <- 69         0.00117
      28 <- 73        -0.00064
      28 <- 78         0.00014
      28 <- 79        -0.00028
      28 <- 81         0.00017
      28 <- 82         0.00038
      28 <- 89         0.00017
      28 <- 95        -0.00034
      28 <-103         0.00014
      28 <-108         0.00014
      28 <-112        -0.00014
      29 <- 32         0.00107
      29 <- 33         0.00082
      29 <- 34        -0.00070
      29 <- 36        -0.00137
      29 <- 37        -0.00232
      29 <- 38         0.00451
      29 <- 39        -0.00121
      29 <- 40         0.00035
      29 <- 41        -0.00369
      29 <- 42        -0.00138
      29 <- 43         0.00151
      29 <- 44         0.00217
      29 <- 46         0.00159
      29 <- 47        -0.00160
      29 <- 48         0.00050
      29 <- 50         0.00014
      29 <- 52         0.00065
      29 <- 55        -0.00011
      29 <- 57         0.00025
      29 <- 58        -0.00048
      29 <- 59         0.00029
      29 <- 61         0.00060
      29 <- 63         0.00056
      29 <- 64        -0.00056
      29 <- 65         0.00087
      29 <- 66        -0.00038
      29 <- 68         0.00167
      29 <- 70         0.00056
      29 <- 71         0.00063
      29 <- 72        -0.00109
      29 <- 74         0.00019
      29 <- 75        -0.00047
      29 <- 77        -0.00014
      29 <- 85         0.00044
      29 <- 90        -0.00015
      29 <- 92         0.00029
      29 <- 93        -0.00046
      29 <- 94        -0.00012
      29 <- 97        -0.00017
      29 <- 98         0.00016
      29 <- 99         0.00020
      29 <-101        -0.00012
      29 <-102         0.00018
      29 <-105        -0.00025
      29 <-106        -0.00011
      29 <-107        -0.00028
      29 <-109         0.00032
      29 <-115         0.00016
 This state for optimization and/or second-order correction.
 Total Energy, E(TD-HF/TD-KS) =  -414.188901143    
 Copying the excited state density for this state as the 1-particle RhoCI density.
 
 Excited State   2:      Singlet-A'     5.4219 eV  228.67 nm  f=0.1317  <S**2>=0.000
       9 -> 32         0.00123
       9 -> 33         0.00012
       9 -> 34        -0.00029
       9 -> 36        -0.00015
       9 -> 38         0.00082
       9 -> 39        -0.00063
       9 -> 40        -0.00088
       9 -> 41         0.00034
       9 -> 42        -0.00037
       9 -> 43        -0.00019
       9 -> 44         0.00040
       9 -> 46         0.00039
       9 -> 47         0.00027
       9 -> 48         0.00025
       9 -> 50        -0.00020
       9 -> 52         0.00014
       9 -> 53         0.00027
       9 -> 57        -0.00025
       9 -> 61         0.00048
       9 -> 65         0.00010
       9 -> 66        -0.00019
       9 -> 68        -0.00037
       9 -> 70         0.00024
       9 -> 72        -0.00016
       9 -> 75         0.00017
       9 -> 77         0.00031
       9 -> 80        -0.00010
       9 -> 84        -0.00023
       9 -> 86         0.00021
       9 -> 87         0.00018
       9 -> 90         0.00034
       9 -> 93         0.00020
       9 -> 97        -0.00020
       9 -> 98         0.00042
       9 ->109        -0.00010
       9 ->119        -0.00012
      10 -> 32        -0.00091
      10 -> 33        -0.00039
      10 -> 34         0.00039
      10 -> 36        -0.00017
      10 -> 37        -0.00034
      10 -> 38        -0.00154
      10 -> 39        -0.00143
      10 -> 40        -0.00109
      10 -> 41         0.00048
      10 -> 42        -0.00024
      10 -> 43         0.00024
      10 -> 44        -0.00011
      10 -> 46        -0.00042
      10 -> 47         0.00013
      10 -> 48        -0.00019
      10 -> 50         0.00044
      10 -> 52        -0.00011
      10 -> 53         0.00050
      10 -> 55         0.00028
      10 -> 57         0.00062
      10 -> 58        -0.00019
      10 -> 59         0.00016
      10 -> 60        -0.00026
      10 -> 63         0.00020
      10 -> 65        -0.00052
      10 -> 68        -0.00015
      10 -> 75        -0.00027
      10 -> 77        -0.00030
      10 -> 80        -0.00069
      10 -> 84         0.00014
      10 -> 85         0.00022
      10 -> 87         0.00034
      10 -> 91         0.00027
      10 -> 94         0.00034
      10 -> 98         0.00015
      10 ->111         0.00021
      10 ->114        -0.00014
      11 -> 32         0.00346
      11 -> 33         0.00038
      11 -> 34        -0.00109
      11 -> 36        -0.00049
      11 -> 37        -0.00236
      11 -> 38         0.00146
      11 -> 39         0.00023
      11 -> 40        -0.00294
      11 -> 41        -0.00023
      11 -> 42         0.00122
      11 -> 43        -0.00033
      11 -> 44         0.00255
      11 -> 46         0.00072
      11 -> 47         0.00019
      11 -> 52         0.00077
      11 -> 53        -0.00041
      11 -> 55        -0.00043
      11 -> 57        -0.00023
      11 -> 58         0.00077
      11 -> 59        -0.00021
      11 -> 60        -0.00061
      11 -> 61         0.00097
      11 -> 63        -0.00041
      11 -> 64        -0.00013
      11 -> 65         0.00069
      11 -> 66        -0.00027
      11 -> 68        -0.00074
      11 -> 70         0.00028
      11 -> 71        -0.00027
      11 -> 72        -0.00054
      11 -> 75         0.00013
      11 -> 77         0.00046
      11 -> 80         0.00017
      11 -> 84        -0.00052
      11 -> 85        -0.00016
      11 -> 86        -0.00017
      11 -> 87        -0.00022
      11 -> 91         0.00014
      11 -> 92        -0.00020
      11 -> 93         0.00046
      11 -> 97        -0.00026
      11 -> 98         0.00038
      11 ->101         0.00030
      11 ->102         0.00013
      11 ->107        -0.00032
      11 ->109        -0.00025
      11 ->111        -0.00014
      11 ->115        -0.00013
      11 ->119         0.00011
      11 ->121        -0.00015
      12 -> 32        -0.00415
      12 -> 33        -0.00066
      12 -> 34         0.00199
      12 -> 36         0.00107
      12 -> 37         0.00190
      12 -> 38        -0.00129
      12 -> 39        -0.00170
      12 -> 40         0.00252
      12 -> 41        -0.00107
      12 -> 42         0.00196
      12 -> 43         0.00129
      12 -> 44         0.00058
      12 -> 46         0.00029
      12 -> 47         0.00024
      12 -> 48        -0.00022
      12 -> 50         0.00058
      12 -> 52        -0.00138
      12 -> 53        -0.00044
      12 -> 57         0.00030
      12 -> 58         0.00045
      12 -> 59         0.00075
      12 -> 60         0.00030
      12 -> 61        -0.00059
      12 -> 63        -0.00041
      12 -> 64        -0.00018
      12 -> 65         0.00038
      12 -> 66        -0.00013
      12 -> 68         0.00039
      12 -> 70        -0.00040
      12 -> 71        -0.00014
      12 -> 72         0.00065
      12 -> 74         0.00022
      12 -> 75        -0.00035
      12 -> 80        -0.00037
      12 -> 83        -0.00014
      12 -> 84         0.00024
      12 -> 86        -0.00015
      12 -> 90        -0.00018
      12 -> 92         0.00017
      12 -> 93        -0.00030
      12 -> 94        -0.00030
      12 -> 98        -0.00032
      12 -> 99         0.00011
      12 ->101        -0.00012
      12 ->107         0.00017
      12 ->109         0.00012
      12 ->113         0.00022
      12 ->114         0.00016
      13 -> 32        -0.00313
      13 -> 33        -0.00205
      13 -> 34         0.00211
      13 -> 36        -0.00529
      13 -> 37        -0.00289
      13 -> 38         0.00285
      13 -> 39        -0.00301
      13 -> 40        -0.00133
      13 -> 41        -0.00330
      13 -> 42        -0.00186
      13 -> 43         0.00597
      13 -> 44         0.00023
      13 -> 46         0.00187
      13 -> 47        -0.00402
      13 -> 48         0.00014
      13 -> 50        -0.00094
      13 -> 52         0.00158
      13 -> 53         0.00067
      13 -> 55        -0.00107
      13 -> 57         0.00125
      13 -> 58         0.00141
      13 -> 59         0.00040
      13 -> 60         0.00019
      13 -> 61        -0.00019
      13 -> 63        -0.00097
      13 -> 64        -0.00070
      13 -> 65         0.00242
      13 -> 66         0.00084
      13 -> 68        -0.00237
      13 -> 70         0.00111
      13 -> 71        -0.00148
      13 -> 72        -0.00155
      13 -> 74         0.00075
      13 -> 75         0.00028
      13 -> 77        -0.00014
      13 -> 80        -0.00107
      13 -> 83         0.00058
      13 -> 84         0.00091
      13 -> 85        -0.00022
      13 -> 86        -0.00036
      13 -> 90        -0.00023
      13 -> 93        -0.00016
      13 -> 94        -0.00033
      13 -> 97        -0.00043
      13 -> 98         0.00033
      13 ->101        -0.00018
      13 ->102        -0.00014
      13 ->105        -0.00040
      13 ->106        -0.00037
      13 ->109         0.00014
      13 ->113        -0.00029
      13 ->115        -0.00028
      13 ->116         0.00014
      13 ->117        -0.00014
      13 ->119         0.00014
      13 ->120        -0.00011
      13 ->126         0.00012
      14 -> 32        -0.00418
      14 -> 33         0.00286
      14 -> 34        -0.00559
      14 -> 36        -0.00056
      14 -> 37        -0.00174
      14 -> 38         0.00027
      14 -> 39         0.00254
      14 -> 40        -0.00192
      14 -> 41         0.00241
      14 -> 42        -0.00182
      14 -> 43         0.00057
      14 -> 44         0.00226
      14 -> 46        -0.00068
      14 -> 47         0.00143
      14 -> 48        -0.00035
      14 -> 52        -0.00082
      14 -> 53        -0.00137
      14 -> 55         0.00035
      14 -> 57        -0.00044
      14 -> 58         0.00136
      14 -> 59        -0.00122
      14 -> 60         0.00034
      14 -> 61        -0.00016
      14 -> 63         0.00126
      14 -> 64        -0.00033
      14 -> 65        -0.00028
      14 -> 66        -0.00089
      14 -> 68        -0.00110
      14 -> 70        -0.00056
      14 -> 71         0.00075
      14 -> 72        -0.00062
      14 -> 74         0.00037
      14 -> 75         0.00031
      14 -> 80        -0.00040
      14 -> 83        -0.00017
      14 -> 84        -0.00045
      14 -> 85         0.00045
      14 -> 86        -0.00020
      14 -> 87        -0.00017
      14 -> 90        -0.00030
      14 -> 93        -0.00043
      14 -> 97        -0.00020
      14 -> 98         0.00018
      14 ->101        -0.00060
      14 ->102        -0.00018
      14 ->105        -0.00020
      14 ->106        -0.00011
      14 ->107         0.00022
      14 ->113         0.00033
      14 ->121         0.00014
      14 ->124         0.00012
      14 ->126        -0.00011
      15 -> 32         0.00161
      15 -> 33         0.00046
      15 -> 34        -0.00637
      15 -> 36         0.00168
      15 -> 37         0.00765
      15 -> 38         0.00474
      15 -> 39         0.00338
      15 -> 40         0.00165
      15 -> 41         0.00011
      15 -> 42        -0.00176
      15 -> 43         0.00016
      15 -> 44        -0.00076
      15 -> 46        -0.00305
      15 -> 47         0.00125
      15 -> 48        -0.00020
      15 -> 50         0.00157
      15 -> 52        -0.00208
      15 -> 53        -0.00081
      15 -> 55         0.00100
      15 -> 57        -0.00063
      15 -> 58         0.00103
      15 -> 59        -0.00024
      15 -> 60         0.00013
      15 -> 63         0.00094
      15 -> 64         0.00110
      15 -> 65        -0.00117
      15 -> 66         0.00057
      15 -> 68         0.00031
      15 -> 70        -0.00036
      15 -> 71         0.00111
      15 -> 72         0.00055
      15 -> 74        -0.00039
      15 -> 75        -0.00019
      15 -> 80         0.00041
      15 -> 83        -0.00017
      15 -> 85         0.00021
      15 -> 87        -0.00023
      15 -> 90         0.00027
      15 -> 91        -0.00055
      15 -> 92         0.00044
      15 -> 93        -0.00028
      15 -> 98        -0.00013
      15 -> 99         0.00019
      15 ->102        -0.00014
      15 ->105         0.00026
      15 ->106         0.00045
      15 ->107        -0.00018
      15 ->109         0.00014
      15 ->113         0.00013
      15 ->114        -0.00015
      15 ->116         0.00011
      15 ->118         0.00011
      15 ->120        -0.00014
      16 -> 32        -0.00417
      16 -> 33         0.00460
      16 -> 34         0.00866
      16 -> 36         0.00743
      16 -> 37         0.00307
      16 -> 38         0.00145
      16 -> 39        -0.00036
      16 -> 40        -0.00046
      16 -> 41        -0.00111
      16 -> 42        -0.00032
      16 -> 43        -0.00265
      16 -> 44        -0.00091
      16 -> 46        -0.00072
      16 -> 47        -0.00029
      16 -> 48         0.00037
      16 -> 50         0.00046
      16 -> 52         0.00068
      16 -> 53        -0.00026
      16 -> 55         0.00056
      16 -> 57        -0.00030
      16 -> 58        -0.00124
      16 -> 59        -0.00050
      16 -> 60         0.00100
      16 -> 61        -0.00093
      16 -> 63        -0.00124
      16 -> 65        -0.00035
      16 -> 66        -0.00095
      16 -> 68         0.00069
      16 -> 70        -0.00122
      16 -> 71         0.00048
      16 -> 72         0.00072
      16 -> 75         0.00036
      16 -> 80         0.00037
      16 -> 83         0.00035
      16 -> 84        -0.00043
      16 -> 85        -0.00026
      16 -> 86        -0.00071
      16 -> 87         0.00011
      16 -> 90         0.00014
      16 -> 91        -0.00021
      16 -> 92        -0.00022
      16 -> 93         0.00040
      16 -> 97        -0.00033
      16 -> 98         0.00012
      16 -> 99        -0.00015
      16 ->101         0.00046
      16 ->105         0.00021
      16 ->106         0.00017
      16 ->109        -0.00017
      16 ->113         0.00029
      16 ->114        -0.00012
      16 ->115         0.00024
      16 ->119        -0.00015
      16 ->124        -0.00012
      17 -> 32         0.00598
      17 -> 33         0.00488
      17 -> 34         0.00499
      17 -> 36        -0.00568
      17 -> 37        -0.00252
      17 -> 38         0.01147
      17 -> 39        -0.00110
      17 -> 40        -0.01046
      17 -> 41        -0.00362
      17 -> 42         0.00027
      17 -> 43        -0.00038
      17 -> 44         0.00364
      17 -> 46         0.00099
      17 -> 47        -0.00039
      17 -> 48        -0.00078
      17 -> 50        -0.00164
      17 -> 52         0.00707
      17 -> 53         0.00214
      17 -> 55        -0.00070
      17 -> 57         0.00113
      17 -> 58        -0.00080
      17 -> 59        -0.00047
      17 -> 61         0.00168
      17 -> 63        -0.00180
      17 -> 64        -0.00084
      17 -> 65         0.00277
      17 -> 66         0.00051
      17 -> 68        -0.00206
      17 -> 70         0.00053
      17 -> 71        -0.00094
      17 -> 72        -0.00099
      17 -> 74         0.00050
      17 -> 75         0.00034
      17 -> 77        -0.00017
      17 -> 80        -0.00064
      17 -> 84        -0.00041
      17 -> 85         0.00133
      17 -> 86         0.00025
      17 -> 90        -0.00017
      17 -> 91         0.00044
      17 -> 92        -0.00038
      17 -> 94        -0.00034
      17 -> 97         0.00017
      17 -> 98         0.00027
      17 ->101        -0.00018
      17 ->102        -0.00039
      17 ->105        -0.00034
      17 ->106        -0.00027
      17 ->107         0.00032
      17 ->109        -0.00024
      17 ->111        -0.00012
      17 ->113        -0.00025
      17 ->114         0.00038
      17 ->115         0.00021
      17 ->116        -0.00013
      18 -> 32        -0.00128
      18 -> 33         0.00266
      18 -> 34        -0.00723
      18 -> 36         0.00384
      18 -> 37        -0.01050
      18 -> 38         0.00142
      18 -> 39         0.00644
      18 -> 40        -0.00416
      18 -> 41        -0.00362
      18 -> 42        -0.00561
      18 -> 43        -0.00073
      18 -> 44         0.00132
      18 -> 46         0.00082
      18 -> 47        -0.00026
      18 -> 48        -0.00149
      18 -> 50        -0.00222
      18 -> 52         0.00268
      18 -> 53        -0.00128
      18 -> 57        -0.00061
      18 -> 58         0.00031
      18 -> 59        -0.00084
      18 -> 60         0.00210
      18 -> 61        -0.00033
      18 -> 63        -0.00014
      18 -> 64        -0.00117
      18 -> 65        -0.00068
      18 -> 66        -0.00143
      18 -> 68        -0.00060
      18 -> 70        -0.00029
      18 -> 71        -0.00023
      18 -> 72        -0.00058
      18 -> 74         0.00012
      18 -> 75         0.00069
      18 -> 77         0.00057
      18 -> 83         0.00042
      18 -> 84        -0.00058
      18 -> 85         0.00016
      18 -> 86         0.00016
      18 -> 90        -0.00013
      18 -> 91         0.00036
      18 -> 92        -0.00035
      18 -> 93         0.00044
      18 -> 94        -0.00020
      18 -> 97        -0.00015
      18 -> 98         0.00064
      18 ->105        -0.00031
      18 ->106        -0.00027
      18 ->109        -0.00012
      18 ->113        -0.00021
      18 ->114        -0.00019
      18 ->117        -0.00013
      18 ->118         0.00013
      18 ->120        -0.00010
      19 -> 30        -0.01566
      19 -> 31         0.00231
      19 -> 35        -0.00057
      19 -> 45         0.00194
      19 -> 49        -0.00012
      19 -> 51        -0.00327
      19 -> 54        -0.00124
      19 -> 56         0.00081
      19 -> 62         0.00030
      19 -> 69        -0.00044
      19 -> 73        -0.00052
      19 -> 76         0.00016
      19 -> 78         0.00023
      19 -> 79         0.00023
      19 -> 81        -0.00086
      19 -> 88         0.00029
      19 -> 89        -0.00033
      19 -> 96         0.00013
      19 ->100        -0.00027
      19 ->104         0.00054
      20 -> 32        -0.00243
      20 -> 33        -0.00026
      20 -> 34         0.00025
      20 -> 36         0.00261
      20 -> 37         0.00110
      20 -> 38         0.00369
      20 -> 39        -0.01358
      20 -> 40        -0.00849
      20 -> 41        -0.00610
      20 -> 42         0.00099
      20 -> 43         0.00978
      20 -> 44         0.00164
      20 -> 46         0.00604
      20 -> 47        -0.00222
      20 -> 50        -0.00178
      20 -> 52         0.00351
      20 -> 53         0.00209
      20 -> 55        -0.00310
      20 -> 57         0.00484
      20 -> 58         0.00172
      20 -> 59         0.00085
      20 -> 60         0.00241
      20 -> 61         0.00237
      20 -> 63        -0.00114
      20 -> 64         0.00044
      20 -> 65         0.00182
      20 -> 66        -0.00035
      20 -> 68        -0.00148
      20 -> 70         0.00150
      20 -> 71        -0.00196
      20 -> 72        -0.00083
      20 -> 74        -0.00029
      20 -> 75        -0.00043
      20 -> 77        -0.00014
      20 -> 80        -0.00065
      20 -> 84         0.00056
      20 -> 85         0.00022
      20 -> 86        -0.00012
      20 -> 87         0.00058
      20 -> 91         0.00032
      20 -> 92        -0.00029
      20 -> 93         0.00016
      20 -> 94        -0.00067
      20 -> 98        -0.00019
      20 -> 99         0.00018
      20 ->101        -0.00049
      20 ->102         0.00029
      20 ->105        -0.00026
      20 ->106        -0.00023
      20 ->109         0.00014
      20 ->111         0.00011
      20 ->113        -0.00044
      20 ->115        -0.00050
      20 ->116         0.00012
      20 ->118        -0.00027
      20 ->119         0.00022
      20 ->120        -0.00013
      20 ->124         0.00012
      21 -> 32        -0.00418
      21 -> 33        -0.00022
      21 -> 34         0.00505
      21 -> 36        -0.00051
      21 -> 37         0.00968
      21 -> 38         0.00459
      21 -> 39         0.00025
      21 -> 40        -0.01014
      21 -> 41        -0.00256
      21 -> 42        -0.00101
      21 -> 43         0.00717
      21 -> 44        -0.00133
      21 -> 46         0.00301
      21 -> 47        -0.00620
      21 -> 50        -0.00043
      21 -> 52         0.00173
      21 -> 53         0.00148
      21 -> 55        -0.00149
      21 -> 57         0.00345
      21 -> 58         0.00209
      21 -> 59        -0.00175
      21 -> 60         0.00083
      21 -> 61         0.00138
      21 -> 63        -0.00129
      21 -> 64         0.00079
      21 -> 65         0.00169
      21 -> 66         0.00018
      21 -> 68        -0.00056
      21 -> 71        -0.00077
      21 -> 72        -0.00072
      21 -> 74         0.00019
      21 -> 75         0.00043
      21 -> 77        -0.00018
      21 -> 80        -0.00062
      21 -> 83         0.00014
      21 -> 84         0.00037
      21 -> 85        -0.00028
      21 -> 86        -0.00050
      21 -> 87        -0.00022
      21 -> 90         0.00028
      21 -> 91        -0.00071
      21 -> 93        -0.00021
      21 -> 97        -0.00069
      21 -> 98         0.00015
      21 -> 99        -0.00023
      21 ->101        -0.00042
      21 ->106         0.00026
      21 ->107         0.00025
      21 ->109         0.00017
      21 ->111         0.00035
      21 ->115        -0.00030
      21 ->118         0.00018
      21 ->119        -0.00018
      21 ->120        -0.00013
      22 -> 32         0.00112
      22 -> 33        -0.00391
      22 -> 34        -0.00553
      22 -> 36         0.00443
      22 -> 37        -0.00314
      22 -> 38         0.00108
      22 -> 39        -0.00226
      22 -> 40         0.01512
      22 -> 41        -0.00647
      22 -> 42        -0.00580
      22 -> 43        -0.00571
      22 -> 44        -0.00221
      22 -> 46        -0.00384
      22 -> 47         0.00563
      22 -> 48        -0.00050
      22 -> 50         0.00042
      22 -> 52        -0.00148
      22 -> 53        -0.00046
      22 -> 55         0.00033
      22 -> 57        -0.00082
      22 -> 58        -0.00127
      22 -> 59         0.00059
      22 -> 60        -0.00102
      22 -> 61        -0.00198
      22 -> 63         0.00155
      22 -> 64        -0.00099
      22 -> 65        -0.00283
      22 -> 66         0.00018
      22 -> 68         0.00134
      22 -> 71        -0.00095
      22 -> 72         0.00082
      22 -> 74        -0.00066
      22 -> 77        -0.00013
      22 -> 80         0.00060
      22 -> 83         0.00016
      22 -> 84         0.00014
      22 -> 85         0.00062
      22 -> 86         0.00071
      22 -> 87         0.00013
      22 -> 90         0.00029
      22 -> 91         0.00050
      22 -> 93         0.00059
      22 -> 94        -0.00035
      22 -> 97         0.00061
      22 -> 99         0.00038
      22 ->101         0.00035
      22 ->102         0.00021
      22 ->106        -0.00018
      22 ->107        -0.00032
      22 ->111        -0.00020
      22 ->113        -0.00018
      22 ->114         0.00017
      22 ->115         0.00026
      22 ->116        -0.00019
      22 ->117        -0.00040
      23 -> 32        -0.00582
      23 -> 33        -0.00168
      23 -> 34        -0.00182
      23 -> 36        -0.00391
      23 -> 37         0.01003
      23 -> 38         0.00290
      23 -> 39         0.01226
      23 -> 41         0.00657
      23 -> 42        -0.00207
      23 -> 43        -0.00247
      23 -> 44         0.00034
      23 -> 46        -0.00518
      23 -> 47        -0.00113
      23 -> 48         0.00092
      23 -> 50         0.00330
      23 -> 52        -0.00489
      23 -> 53        -0.00426
      23 -> 55         0.00065
      23 -> 57         0.00069
      23 -> 58        -0.00179
      23 -> 59         0.00147
      23 -> 60        -0.00125
      23 -> 61         0.00052
      23 -> 63         0.00139
      23 -> 64         0.00077
      23 -> 65        -0.00183
      23 -> 66        -0.00156
      23 -> 68        -0.00059
      23 -> 70        -0.00153
      23 -> 71         0.00091
      23 -> 72        -0.00018
      23 -> 74         0.00091
      23 -> 75         0.00056
      23 -> 77        -0.00030
      23 -> 80         0.00014
      23 -> 83        -0.00044
      23 -> 84        -0.00010
      23 -> 85        -0.00027
      23 -> 86        -0.00097
      23 -> 87        -0.00025
      23 -> 90         0.00042
      23 -> 91        -0.00120
      23 -> 92         0.00014
      23 -> 93        -0.00046
      23 -> 94         0.00072
      23 -> 97        -0.00050
      23 -> 98        -0.00016
      23 -> 99        -0.00044
      23 ->101        -0.00019
      23 ->102        -0.00032
      23 ->105         0.00030
      23 ->106         0.00048
      23 ->113         0.00055
      23 ->114        -0.00019
      23 ->115         0.00027
      23 ->116        -0.00015
      23 ->117        -0.00012
      23 ->118        -0.00018
      24 -> 30        -0.00508
      24 -> 31        -0.02288
      24 -> 45        -0.00503
      24 -> 49         0.00026
      24 -> 51        -0.00084
      24 -> 54         0.00108
      24 -> 56        -0.00017
      24 -> 62        -0.00116
      24 -> 67        -0.00143
      24 -> 69        -0.00074
      24 -> 73        -0.00086
      24 -> 76        -0.00123
      24 -> 78         0.00023
      24 -> 79        -0.00166
      24 -> 81         0.00132
      24 -> 82         0.00066
      24 -> 88        -0.00049
      24 -> 89        -0.00025
      24 -> 95        -0.00055
      24 -> 96        -0.00038
      24 ->100         0.00045
      24 ->103        -0.00010
      24 ->108        -0.00011
      25 -> 30        -0.05110
      25 -> 31         0.06920
      25 -> 35        -0.00648
      25 -> 45         0.00350
      25 -> 49        -0.00176
      25 -> 51        -0.00366
      25 -> 54        -0.00446
      25 -> 56         0.00212
      25 -> 62         0.00061
      25 -> 67        -0.00066
      25 -> 69         0.00036
      25 -> 73         0.00273
      25 -> 76         0.00072
      25 -> 78         0.00077
      25 -> 79        -0.00046
      25 -> 81         0.00023
      25 -> 82         0.00101
      25 -> 88        -0.00038
      25 -> 89         0.00016
      25 -> 95        -0.00053
      25 ->103        -0.00017
      25 ->108         0.00029
      25 ->110         0.00039
      26 -> 32         0.00172
      26 -> 33         0.00678
      26 -> 34        -0.00818
      26 -> 36        -0.00137
      26 -> 37         0.00523
      26 -> 38         0.01002
      26 -> 39         0.00481
      26 -> 40        -0.00162
      26 -> 41         0.00978
      26 -> 42        -0.00191
      26 -> 43        -0.00240
      26 -> 44         0.00093
      26 -> 46        -0.00410
      26 -> 47         0.00088
      26 -> 48         0.00224
      26 -> 50         0.00087
      26 -> 52         0.00028
      26 -> 53        -0.00193
      26 -> 55         0.00102
      26 -> 57        -0.00068
      26 -> 58        -0.00071
      26 -> 59        -0.00242
      26 -> 60        -0.00114
      26 -> 61         0.00101
      26 -> 63         0.00183
      26 -> 64         0.00029
      26 -> 65        -0.00054
      26 -> 66        -0.00088
      26 -> 68        -0.00221
      26 -> 70         0.00056
      26 -> 71         0.00094
      26 -> 72         0.00136
      26 -> 75         0.00073
      26 -> 77         0.00034
      26 -> 80         0.00059
      26 -> 84        -0.00049
      26 -> 85        -0.00052
      26 -> 86        -0.00023
      26 -> 87         0.00049
      26 -> 90         0.00058
      26 -> 92         0.00026
      26 -> 93        -0.00042
      26 -> 94         0.00029
      26 -> 97        -0.00044
      26 -> 98         0.00011
      26 -> 99         0.00020
      26 ->101        -0.00014
      26 ->106         0.00028
      26 ->107         0.00018
      26 ->109        -0.00017
      26 ->113         0.00037
      27 -> 30        -0.13650
      27 -> 31        -0.14060
      27 -> 35         0.00192
      27 -> 45        -0.00029
      27 -> 49        -0.00069
      27 -> 51         0.00114
      27 -> 54        -0.00106
      27 -> 56         0.00085
      27 -> 62        -0.00042
      27 -> 67         0.00078
      27 -> 69         0.00132
      27 -> 73         0.00409
      27 -> 76        -0.00045
      27 -> 78        -0.00231
      27 -> 79        -0.00037
      27 -> 81         0.00023
      27 -> 82        -0.00015
      27 -> 88        -0.00017
      27 -> 89         0.00031
      27 ->103         0.00011
      27 ->104        -0.00028
      27 ->110         0.00015
      28 -> 32        -0.02685
      28 -> 33        -0.01954
      28 -> 34        -0.00101
      28 -> 38        -0.02936
      28 -> 39         0.00527
      28 -> 40        -0.00243
      28 -> 41         0.01060
      28 -> 42         0.00079
      28 -> 43        -0.00021
      28 -> 44        -0.00310
      28 -> 46         0.00038
      28 -> 47        -0.00015
      28 -> 48         0.00181
      28 -> 50         0.00239
      28 -> 52        -0.00265
      28 -> 53        -0.00118
      28 -> 55        -0.00103
      28 -> 57        -0.00077
      28 -> 58         0.00100
      28 -> 59        -0.00026
      28 -> 60         0.00040
      28 -> 61        -0.00173
      28 -> 63         0.00053
      28 -> 64         0.00105
      28 -> 65        -0.00265
      28 -> 66         0.00128
      28 -> 68        -0.00212
      28 -> 70        -0.00133
      28 -> 71        -0.00051
      28 -> 72         0.00220
      28 -> 74        -0.00049
      28 -> 75         0.00030
      28 -> 77        -0.00135
      28 -> 80        -0.00074
      28 -> 83        -0.00074
      28 -> 84         0.00029
      28 -> 86        -0.00032
      28 -> 87         0.00016
      28 -> 90        -0.00012
      28 -> 91        -0.00017
      28 -> 94         0.00051
      28 -> 97        -0.00059
      28 -> 98        -0.00011
      28 ->105         0.00028
      28 ->106         0.00026
      28 ->111         0.00015
      28 ->113         0.00025
      28 ->114        -0.00012
      28 ->117         0.00018
      29 -> 30         0.67086
      29 -> 31        -0.02563
      29 -> 35        -0.05023
      29 -> 45        -0.00497
      29 -> 49         0.00180
      29 -> 51        -0.00037
      29 -> 54        -0.00406
      29 -> 56        -0.00240
      29 -> 62        -0.00325
      29 -> 67         0.00121
      29 -> 69         0.00016
      29 -> 73        -0.00184
      29 -> 76        -0.00162
      29 -> 78        -0.00016
      29 -> 81         0.00082
      29 -> 82        -0.00129
      29 -> 88         0.00034
      29 -> 89         0.00019
      29 -> 95        -0.00098
      29 ->100         0.00042
      29 ->103         0.00107
      29 ->110        -0.00011
      29 ->112        -0.00020
       9 <- 32         0.00083
       9 <- 34        -0.00024
       9 <- 37        -0.00013
       9 <- 38         0.00058
       9 <- 39        -0.00048
       9 <- 40        -0.00063
       9 <- 41         0.00027
       9 <- 42        -0.00029
       9 <- 43        -0.00016
       9 <- 44         0.00024
       9 <- 46         0.00027
       9 <- 47         0.00016
       9 <- 48         0.00017
       9 <- 53         0.00023
       9 <- 57        -0.00021
       9 <- 61         0.00038
       9 <- 65         0.00011
       9 <- 66        -0.00016
       9 <- 68        -0.00031
       9 <- 70         0.00022
       9 <- 72        -0.00014
       9 <- 75         0.00016
       9 <- 77         0.00026
       9 <- 84        -0.00019
       9 <- 86         0.00015
       9 <- 87         0.00015
       9 <- 90         0.00029
       9 <- 93         0.00016
       9 <- 97        -0.00019
       9 <- 98         0.00034
       9 <-119        -0.00010
      10 <- 32        -0.00058
      10 <- 33        -0.00027
      10 <- 34         0.00032
      10 <- 36        -0.00013
      10 <- 37        -0.00028
      10 <- 38        -0.00117
      10 <- 39        -0.00103
      10 <- 40        -0.00084
      10 <- 41         0.00043
      10 <- 42        -0.00026
      10 <- 43         0.00022
      10 <- 44        -0.00012
      10 <- 46        -0.00032
      10 <- 47         0.00013
      10 <- 48        -0.00020
      10 <- 50         0.00023
      10 <- 52        -0.00017
      10 <- 53         0.00040
      10 <- 55         0.00028
      10 <- 57         0.00050
      10 <- 58        -0.00010
      10 <- 59         0.00011
      10 <- 60        -0.00022
      10 <- 63         0.00012
      10 <- 65        -0.00042
      10 <- 68        -0.00017
      10 <- 75        -0.00021
      10 <- 77        -0.00020
      10 <- 80        -0.00055
      10 <- 84         0.00014
      10 <- 85         0.00016
      10 <- 87         0.00030
      10 <- 91         0.00022
      10 <- 94         0.00030
      10 <- 98         0.00012
      10 <- 99        -0.00012
      10 <-111         0.00015
      10 <-114        -0.00014
      11 <- 32         0.00224
      11 <- 33         0.00025
[...]
      11 <- 78        -0.00015
      11 <- 79         0.00028
      11 <- 88         0.00087
      11 <- 89        -0.00030
      11 <- 95        -0.00013
      11 <- 96        -0.00023
      11 <-100         0.00010
      11 <-103        -0.00011
      11 <-104        -0.00016
      12 <- 30         0.00030
      12 <- 31         0.00015
      12 <- 49        -0.00012
      12 <- 51        -0.00014
      12 <- 56         0.00018
      12 <- 81        -0.00023
      12 <- 82        -0.00016
      12 <- 88         0.00035
      12 <- 89         0.00012
      12 <-103        -0.00013
      12 <-104        -0.00012
      12 <-110         0.00012
      13 <- 30         0.00019
      13 <- 35         0.00047
      13 <- 49         0.00013
      13 <- 62         0.00014
      13 <- 73        -0.00017
      13 <- 76         0.00019
      13 <- 78        -0.00024
      13 <- 82         0.00023
      13 <- 88        -0.00018
      13 <- 89         0.00023
      13 <-104         0.00017
      14 <- 30        -0.00059
      14 <- 45         0.00012
      14 <- 51        -0.00013
      14 <- 67        -0.00014
      14 <- 73         0.00022
      14 <- 76         0.00020
      14 <- 78         0.00013
      14 <- 79        -0.00030
      14 <- 81        -0.00013
      14 <- 82         0.00011
      14 <- 88         0.00011
      14 <- 95        -0.00012
      14 <- 96        -0.00023
      15 <- 30        -0.00064
      15 <- 31        -0.00073
      15 <- 35         0.00014
      15 <- 51        -0.00015
      15 <- 56        -0.00010
      15 <- 62         0.00012
      15 <- 73         0.00012
      15 <- 76        -0.00025
      15 <- 78        -0.00029
      15 <- 79        -0.00017
      15 <- 81        -0.00019
      15 <- 88        -0.00013
      15 <- 89         0.00015
      15 <-104         0.00016
      15 <-110        -0.00020
      16 <- 30         0.00022
      16 <- 31        -0.00015
      16 <- 35         0.00045
      16 <- 56        -0.00014
      16 <- 76         0.00035
      16 <- 78        -0.00027
      16 <- 79         0.00026
      16 <- 81         0.00034
      16 <- 82        -0.00013
      16 <- 88        -0.00022
      16 <- 95         0.00012
      16 <- 96        -0.00011
      16 <-100        -0.00012
      16 <-104         0.00011
      17 <- 30        -0.00024
      17 <- 31        -0.00059
      17 <- 54        -0.00011
      17 <- 69         0.00016
      17 <- 73         0.00060
      17 <- 88         0.00015
      17 <- 89        -0.00012
      17 <-103         0.00023
      18 <- 30         0.00026
      18 <- 45        -0.00012
      18 <- 51         0.00017
      18 <- 56        -0.00016
      18 <- 79         0.00021
      18 <- 81         0.00033
      18 <- 82         0.00032
      18 <- 95         0.00014
      18 <-100        -0.00011
      18 <-104         0.00011
      19 <- 34        -0.00028
      19 <- 37        -0.00037
      19 <- 38        -0.00022
      19 <- 39         0.00023
      19 <- 40        -0.00023
      19 <- 41         0.00101
      19 <- 42         0.00069
      19 <- 43        -0.00073
      19 <- 44         0.00064
      19 <- 46         0.00063
      19 <- 47         0.00038
      19 <- 48        -0.00080
      19 <- 50         0.00071
      19 <- 52         0.00035
      19 <- 53        -0.00049
      19 <- 55        -0.00033
      19 <- 57        -0.00011
      19 <- 58        -0.00014
      19 <- 59        -0.00049
      19 <- 60        -0.00020
      19 <- 61         0.00050
      19 <- 64        -0.00018
      19 <- 65        -0.00021
      19 <- 68        -0.00027
      19 <- 70        -0.00025
      19 <- 72        -0.00021
      19 <- 74        -0.00023
      19 <- 75        -0.00019
      19 <- 83         0.00024
      19 <- 84        -0.00022
      19 <- 85         0.00020
      19 <- 86        -0.00034
      19 <- 87         0.00023
      19 <- 90        -0.00051
      19 <- 91         0.00060
      19 <- 92        -0.00016
      19 <- 93        -0.00040
      19 <- 98        -0.00027
      19 <-102         0.00015
      19 <-107         0.00019
      20 <- 31         0.00012
      20 <- 35         0.00014
      20 <- 54        -0.00011
      20 <- 67         0.00012
      20 <- 81        -0.00035
      20 <- 88        -0.00032
      20 <- 96         0.00012
      20 <-103         0.00025
      21 <- 35         0.00014
      21 <- 49         0.00015
      21 <- 51        -0.00012
      21 <- 81        -0.00014
      21 <- 88         0.00050
      21 <- 89        -0.00023
      21 <- 95        -0.00016
      21 <-100         0.00026
      21 <-103        -0.00024
      21 <-104        -0.00017
      21 <-110         0.00018
      22 <- 30        -0.00023
      22 <- 31        -0.00044
      22 <- 35         0.00035
      22 <- 45         0.00010
      22 <- 51         0.00014
      22 <- 67         0.00011
      22 <- 76         0.00012
      22 <- 78        -0.00016
      22 <- 79         0.00015
      22 <- 81         0.00011
      22 <- 82        -0.00022
      22 <- 88         0.00021
      22 <- 89        -0.00031
      22 <- 95        -0.00014
      22 <- 96         0.00013
      22 <-103        -0.00011
      22 <-104        -0.00015
      22 <-110         0.00022
      23 <- 30        -0.00018
      23 <- 31        -0.00071
      23 <- 35        -0.00033
      23 <- 67        -0.00018
      23 <- 79        -0.00022
      23 <- 82         0.00011
      23 <- 89        -0.00021
      23 <-108        -0.00015
      23 <-112         0.00015
      24 <- 34        -0.00015
      24 <- 37         0.00036
      24 <- 39         0.00059
      24 <- 40         0.00045
      24 <- 41         0.00024
      24 <- 43        -0.00032
      24 <- 44        -0.00215
      24 <- 46        -0.00065
      24 <- 47        -0.00011
      24 <- 48         0.00116
      24 <- 50        -0.00108
      24 <- 52         0.00108
      24 <- 53         0.00047
      24 <- 55        -0.00060
      24 <- 58        -0.00026
      24 <- 59        -0.00020
      24 <- 60         0.00023
      24 <- 61        -0.00021
      24 <- 65        -0.00031
      24 <- 70         0.00049
      24 <- 71        -0.00033
      24 <- 72         0.00038
      24 <- 77        -0.00017
      24 <- 80         0.00023
      24 <- 84         0.00034
      24 <- 86         0.00070
      24 <- 90         0.00018
      24 <- 91        -0.00012
      24 <- 92         0.00012
      24 <- 93         0.00023
      24 <- 97        -0.00028
      24 <- 98         0.00024
      24 <- 99         0.00011
      24 <-105         0.00015
      24 <-109        -0.00012
      25 <- 32        -0.00061
      25 <- 33        -0.00020
      25 <- 34         0.00162
      25 <- 36        -0.00068
      25 <- 37         0.00178
      25 <- 38        -0.00065
      25 <- 39         0.00030
      25 <- 40         0.00144
      25 <- 41        -0.00145
      25 <- 42        -0.00216
      25 <- 43        -0.00018
      25 <- 44        -0.00177
      25 <- 46         0.00104
      25 <- 47        -0.00013
      25 <- 48         0.00055
      25 <- 52        -0.00032
      25 <- 57        -0.00033
      25 <- 58         0.00012
      25 <- 60         0.00031
      25 <- 61        -0.00024
      25 <- 65         0.00039
      25 <- 66        -0.00095
      25 <- 68         0.00013
      25 <- 70         0.00091
      25 <- 72         0.00048
      25 <- 80        -0.00030
      25 <- 83        -0.00021
      25 <- 85         0.00042
      25 <- 86         0.00034
      25 <- 91        -0.00035
      25 <- 92         0.00014
      25 <- 94        -0.00015
      25 <-101        -0.00017
      25 <-106        -0.00021
      25 <-107         0.00013
      25 <-111         0.00011
      26 <- 30        -0.00361
      26 <- 31         0.00503
      26 <- 35         0.00300
      26 <- 49         0.00017
      26 <- 56        -0.00024
      26 <- 62        -0.00051
      26 <- 67         0.00097
      26 <- 69        -0.00062
      26 <- 73         0.00020
      26 <- 76        -0.00012
      26 <- 78        -0.00012
      26 <- 79        -0.00011
      26 <- 82         0.00022
      26 <- 88        -0.00013
      26 <- 96        -0.00012
      26 <-103         0.00010
      27 <- 32         0.00042
      27 <- 33         0.00081
      27 <- 34         0.00075
      27 <- 36        -0.00089
      27 <- 37         0.00148
      27 <- 38         0.00286
      27 <- 40         0.00080
      27 <- 41        -0.00195
      27 <- 42        -0.00338
      27 <- 43         0.00019
      27 <- 44        -0.00153
      27 <- 46        -0.00023
      27 <- 47        -0.00065
      27 <- 48         0.00101
      27 <- 50        -0.00109
      27 <- 52        -0.00023
      27 <- 53         0.00026
      27 <- 55         0.00083
      27 <- 58        -0.00013
      27 <- 59        -0.00057
      27 <- 63         0.00018
      27 <- 64        -0.00024
      27 <- 65         0.00022
      27 <- 66        -0.00046
      27 <- 68         0.00037
      27 <- 70         0.00139
      27 <- 71         0.00083
      27 <- 74         0.00044
      27 <- 75         0.00020
      27 <- 80         0.00020
      27 <- 83         0.00024
      27 <- 84         0.00032
      27 <- 90         0.00027
      27 <- 91        -0.00040
      27 <- 92         0.00023
      27 <- 94        -0.00017
      27 <- 98         0.00017
      27 <-102         0.00017
      27 <-106        -0.00011
      28 <- 30        -0.00197
      28 <- 31        -0.00476
      28 <- 35         0.00043
      28 <- 49        -0.00014
      28 <- 51         0.00012
      28 <- 56         0.00018
      28 <- 69         0.00085
      28 <- 73        -0.00025
      28 <- 78         0.00023
      28 <- 96         0.00010
      29 <- 32         0.00112
      29 <- 33        -0.00107
      29 <- 34        -0.00146
      29 <- 36         0.00117
      29 <- 37        -0.00310
      29 <- 38        -0.00110
      29 <- 39        -0.00066
      29 <- 40        -0.00059
      29 <- 41        -0.00059
      29 <- 42         0.00059
      29 <- 43         0.00020
      29 <- 44         0.00158
      29 <- 46         0.00032
      29 <- 47        -0.00044
      29 <- 48        -0.00042
      29 <- 50        -0.00013
      29 <- 52        -0.00033
      29 <- 53        -0.00015
      29 <- 55        -0.00012
      29 <- 57        -0.00017
      29 <- 59         0.00024
      29 <- 60         0.00041
      29 <- 63         0.00021
      29 <- 65        -0.00024
      29 <- 66         0.00081
      29 <- 68         0.00076
      29 <- 70        -0.00094
      29 <- 71        -0.00031
      29 <- 72        -0.00084
      29 <- 74        -0.00010
      29 <- 75        -0.00018
      29 <- 80        -0.00016
      29 <- 84         0.00011
      29 <- 86        -0.00016
      29 <- 87        -0.00014
      29 <-105        -0.00011
      29 <-107        -0.00017
      29 <-109        -0.00016
      29 <-114        -0.00010
 SavETr:  write IOETrn=   770 NScale= 10 NData=  16 NLR=1 NState=    3 LETran=      62.

 **********************************************************************

            Population analysis using the SCF density.

 **********************************************************************

 Orbital symmetries:
       Occupied  (A') (A') (A') (A') (A') (A') (A') (A') (A') (A')
                 (A') (A') (A') (A') (A') (A') (A') (A') (A") (A')
                 (A') (A') (A') (A") (A") (A') (A") (A') (A")
       Virtual   (A") (A") (A') (A') (A') (A") (A') (A') (A') (A')
                 (A') (A') (A') (A') (A') (A") (A') (A') (A') (A")
                 (A') (A") (A') (A') (A") (A') (A") (A') (A') (A')
                 (A') (A') (A") (A') (A') (A') (A') (A") (A') (A")
                 (A') (A') (A') (A") (A') (A') (A") (A') (A") (A")
                 (A') (A") (A") (A') (A') (A') (A') (A') (A") (A")
                 (A') (A') (A') (A') (A') (A") (A") (A') (A') (A')
                 (A") (A') (A') (A") (A") (A') (A') (A') (A") (A')
                 (A") (A') (A") (A') (A') (A') (A') (A') (A') (A')
                 (A') (A') (A') (A') (A') (A') (A') (A') (A')
 The electronic state is 1-A'.
 Alpha  occ. eigenvalues --  -19.21115 -19.20415 -14.47740 -14.45693 -10.39148
 Alpha  occ. eigenvalues --  -10.35716 -10.32439 -10.25833  -1.10865  -1.07290
 Alpha  occ. eigenvalues --   -1.00997  -0.95476  -0.82554  -0.71370  -0.68515
 Alpha  occ. eigenvalues --   -0.61894  -0.57638  -0.53967  -0.49640  -0.48963
 Alpha  occ. eigenvalues --   -0.46759  -0.43815  -0.43259  -0.41926  -0.38367
 Alpha  occ. eigenvalues --   -0.31031  -0.29816  -0.27778  -0.26303
 Alpha virt. eigenvalues --   -0.03760   0.01691   0.06352   0.11662   0.12548
 Alpha virt. eigenvalues --    0.13093   0.16460   0.20362   0.21721   0.26142
 Alpha virt. eigenvalues --    0.27237   0.32812   0.35041   0.39054   0.47552
 Alpha virt. eigenvalues --    0.49852   0.50826   0.53317   0.58626   0.58707
 Alpha virt. eigenvalues --    0.59671   0.60490   0.64301   0.65734   0.67356
 Alpha virt. eigenvalues --    0.69872   0.75389   0.78732   0.81958   0.82851
 Alpha virt. eigenvalues --    0.84063   0.84879   0.86409   0.88263   0.90590
 Alpha virt. eigenvalues --    0.94218   1.00115   1.03385   1.03529   1.05670
 Alpha virt. eigenvalues --    1.07777   1.11181   1.13528   1.19107   1.21698
 Alpha virt. eigenvalues --    1.31565   1.34312   1.35351   1.38856   1.42437
 Alpha virt. eigenvalues --    1.44271   1.44897   1.45449   1.46567   1.56497
 Alpha virt. eigenvalues --    1.62095   1.74866   1.77902   1.79447   1.80773
 Alpha virt. eigenvalues --    1.82770   1.83665   1.86088   1.91161   1.96445
 Alpha virt. eigenvalues --    1.97016   1.98410   2.00522   2.06403   2.14200
 Alpha virt. eigenvalues --    2.17371   2.17430   2.21434   2.27167   2.30925
 Alpha virt. eigenvalues --    2.30984   2.39004   2.55688   2.60276   2.61625
 Alpha virt. eigenvalues --    2.63997   2.64116   2.66879   2.73086   2.78872
 Alpha virt. eigenvalues --    2.81736   2.97486   2.99342   3.00294   3.21873
 Alpha virt. eigenvalues --    3.38881   3.93147   3.98013   4.01009   4.16522
 Alpha virt. eigenvalues --    4.20696   4.39350   4.59833   4.67872
          Condensed to atoms (all electrons):
               1          2          3          4          5          6
     1  C    4.104733  -0.030176  -0.006342  -0.002015  -0.014252  -0.011257
     2  C   -0.030176   4.822368   0.520411  -0.019910  -0.000712  -0.022471
     3  C   -0.006342   0.520411   5.260208   0.389947   0.006917   0.003097
     4  C   -0.002015  -0.019910   0.389947   4.223992  -0.008214   0.000051
     5  H   -0.014252  -0.000712   0.006917  -0.008214   0.335263  -0.000109
     6  H   -0.011257  -0.022471   0.003097   0.000051  -0.000109   0.335365
     7  H    0.002045   0.371562  -0.024464   0.002418   0.000022  -0.004318
     8  H    0.000249  -0.037119   0.371040  -0.023195  -0.000105  -0.000107
     9  N    0.245075  -0.002577  -0.104127   0.195757   0.281968   0.005452
    10  N    0.249864   0.287143  -0.033637  -0.015787   0.004884   0.303779
    11  O    0.001310   0.004691  -0.072755   0.601226   0.006332   0.000004
    12  O    0.646534   0.002241   0.000125   0.000601   0.003289   0.006318
               7          8          9         10         11         12
     1  C    0.002045   0.000249   0.245075   0.249864   0.001310   0.646534
     2  C    0.371562  -0.037119  -0.002577   0.287143   0.004691   0.002241
     3  C   -0.024464   0.371040  -0.104127  -0.033637  -0.072755   0.000125
     4  C    0.002418  -0.023195   0.195757  -0.015787   0.601226   0.000601
     5  H    0.000022  -0.000105   0.281968   0.004884   0.006332   0.003289
     6  H   -0.004318  -0.000107   0.005452   0.303779   0.000004   0.006318
     7  H    0.483832  -0.003440  -0.000515  -0.044015  -0.000057  -0.000087
     8  H   -0.003440   0.477680   0.004352   0.003279  -0.000729   0.000002
     9  N   -0.000515   0.004352   7.412405  -0.109331  -0.090608  -0.086022
    10  N   -0.044015   0.003279  -0.109331   7.143120   0.000036  -0.091196
    11  O   -0.000057  -0.000729  -0.090608   0.000036   8.054115  -0.000021
    12  O   -0.000087   0.000002  -0.086022  -0.091196  -0.000021   8.022217
 Mulliken charges:
               1
     1  C    0.814232
     2  C    0.104550
     3  C   -0.310419
     4  C    0.655129
     5  H    0.384716
     6  H    0.384196
     7  H    0.217017
     8  H    0.208094
     9  N   -0.751830
    10  N   -0.698139
    11  O   -0.503544
    12  O   -0.504002
 Sum of Mulliken charges =   0.00000
 Mulliken charges with hydrogens summed into heavy atoms:
               1
     1  C    0.814232
     2  C    0.321566
     3  C   -0.102325
     4  C    0.655129
     9  N   -0.367114
    10  N   -0.313943
    11  O   -0.503544
    12  O   -0.504002
 Electronic spatial extent (au):  <R**2>=            831.5929
 Charge=              0.0000 electrons
 Dipole moment (field-independent basis, Debye):
    X=             -1.1775    Y=             -4.1329    Z=              0.0000  Tot=              4.2974
 Quadrupole moment (field-independent basis, Debye-Ang):
   XX=            -55.7502   YY=            -36.7490   ZZ=            -45.5118
   XY=              1.7398   XZ=              0.0000   YZ=              0.0000
 Traceless Quadrupole moment (field-independent basis, Debye-Ang):
   XX=             -9.7466   YY=              9.2547   ZZ=              0.4919
   XY=              1.7398   XZ=              0.0000   YZ=              0.0000
 Octapole moment (field-independent basis, Debye-Ang**2):
  XXX=             -7.4851  YYY=             -5.2332  ZZZ=              0.0000  XYY=             -6.4418
  XXY=            -29.5836  XXZ=              0.0000  XZZ=             -1.6024  YZZ=              4.4535
  YYZ=              0.0000  XYZ=              0.0000
 Hexadecapole moment (field-independent basis, Debye-Ang**3):
 XXXX=           -676.5471 YYYY=           -298.4758 ZZZZ=            -40.2089 XXXY=              6.6134
 XXXZ=              0.0000 YYYX=              5.4185 YYYZ=              0.0000 ZZZX=              0.0000
 ZZZY=              0.0000 XXYY=           -164.9728 XXZZ=           -106.9646 YYZZ=            -71.6024
 XXYZ=              0.0000 YYXZ=              0.0000 ZZXY=              1.1392
 N-N= 3.555761472429D+02 E-N=-1.679449625637D+03  KE= 4.108183184569D+02
 Symmetry A'   KE= 3.945169617460D+02
 Symmetry A"   KE= 1.630135671094D+01

 Test job not archived.
 1|1|UNPC-X500|SP|RPBE1PBE TD-FC|6-31G(d)|C4H4N2O2|SOBEREVA|26-May-2017
 |0||# PBE1PBE/6-31G* TD IOp(9/40=4)||B3LYP/6-31G* opted||0,1|C,0,-1.23
 749815,0.36573215,0.|C,0,0.05337385,-1.70928465,0.|C,0,1.24151979,-1.0
 6801061,0.|C,0,1.28200385,0.3916801,0.|H,0,-0.02061908,2.00141365,0.|H
 ,0,-2.02597565,-1.51440798,0.|H,0,-0.03161872,-2.79076675,0.|H,0,2.180
 93078,-1.60364321,0.|N,0,0.,0.98771295,0.|N,0,-1.14105931,-1.02649028,
 0.|O,0,2.28466327,1.08546823,0.|O,0,-2.30362555,0.95179972,0.||Version
 =IA32W-G09RevD.01|State=1-A'|HF=-414.3651797|RMSD=9.697e-009|PG=CS [SG
 (C4H4N2O2)]||@


 AND THIS OUR LIFE, EXEMPT FROM PUBLIC HAUNT,
 FINDS TONGUES IN TREES, BOOKS IN THE RUNNING BROOKS,
 SERMONS IN STONES, AND GOOD IN EVERYTHING.
 I WOULD NOT CHANGE IT. -- W. SHAKESPEARE
 AS YOU LIKE IT, ACT II, SCENE 1.
 Job cpu time:       0 days  0 hours  0 minutes 53.0 seconds.
 File lengths (MBytes):  RWF=     31 Int=      0 D2E=      0 Chk=      3 Scr=      1
 Normal termination of Gaussian 09 at Fri May 26 08:34:18 2017.
