 Entering Gaussian System, Link 0=g16
 AtFile(1): /sob/LPol-ds.gbs
 Initial command:
 /sob/g16/l1.exe "/sob2/gauscr/Gau-21044.inp" -scrdir="/sob2/gauscr/"
 Default is to use a total of  36 processors:
                               36 via shared-memory
                                1 via Linda
 Entering Link 1 = /sob/g16/l1.exe PID=     21046.
  
 Copyright (c) 1988,1990,1992,1993,1995,1998,2003,2009,2016,
            Gaussian, Inc.  All Rights Reserved.
  
 This is part of the Gaussian(R) 16 program.  It is based on
 the Gaussian(R) 09 system (copyright 2009, Gaussian, Inc.),
 the Gaussian(R) 03 system (copyright 2003, Gaussian, Inc.),
 the Gaussian(R) 98 system (copyright 1998, Gaussian, Inc.),
 the Gaussian(R) 94 system (copyright 1995, Gaussian, Inc.),
 the Gaussian 92(TM) system (copyright 1992, Gaussian, Inc.),
 the Gaussian 90(TM) system (copyright 1990, Gaussian, Inc.),
 the Gaussian 88(TM) system (copyright 1988, Gaussian, Inc.),
 the Gaussian 86(TM) system (copyright 1986, Carnegie Mellon
 University), and the Gaussian 82(TM) system (copyright 1983,
 Carnegie Mellon University). Gaussian is a federally registered
 trademark of Gaussian, Inc.
  
 This software contains proprietary and confidential information,
 including trade secrets, belonging to Gaussian, Inc.
  
 This software is provided under written license and may be
 used, copied, transmitted, or stored only in accord with that
 written license.
  
 The following legend is applicable only to US Government
 contracts under FAR:
  
                    RESTRICTED RIGHTS LEGEND
  
 Use, reproduction and disclosure by the US Government is
 subject to restrictions as set forth in subparagraphs (a)
 and (c) of the Commercial Computer Software - Restricted
 Rights clause in FAR 52.227-19.
  
 Gaussian, Inc.
 340 Quinnipiac St., Bldg. 40, Wallingford CT 06492
  
  
 ---------------------------------------------------------------
 Warning -- This program may not be used in any manner that
 competes with the business of Gaussian, Inc. or will provide
 assistance to any competitor of Gaussian, Inc.  The licensee
 of this program is prohibited from giving any competitor of
 Gaussian, Inc. access to this program.  By using this program,
 the user acknowledges that Gaussian, Inc. is engaged in the
 business of creating and licensing software in the field of
 computational chemistry and represents and warrants to the
 licensee that it is not a competitor of Gaussian, Inc. and that
 it will not use this program in any manner prohibited above.
 ---------------------------------------------------------------
  

 Cite this work as:
 Gaussian 16, Revision A.03,
 M. J. Frisch, G. W. Trucks, H. B. Schlegel, G. E. Scuseria, 
 M. A. Robb, J. R. Cheeseman, G. Scalmani, V. Barone, 
 G. A. Petersson, H. Nakatsuji, X. Li, M. Caricato, A. V. Marenich, 
 J. Bloino, B. G. Janesko, R. Gomperts, B. Mennucci, H. P. Hratchian, 
 J. V. Ortiz, A. F. Izmaylov, J. L. Sonnenberg, D. Williams-Young, 
 F. Ding, F. Lipparini, F. Egidi, J. Goings, B. Peng, A. Petrone, 
 T. Henderson, D. Ranasinghe, V. G. Zakrzewski, J. Gao, N. Rega, 
 G. Zheng, W. Liang, M. Hada, M. Ehara, K. Toyota, R. Fukuda, 
 J. Hasegawa, M. Ishida, T. Nakajima, Y. Honda, O. Kitao, H. Nakai, 
 T. Vreven, K. Throssell, J. A. Montgomery, Jr., J. E. Peralta, 
 F. Ogliaro, M. J. Bearpark, J. J. Heyd, E. N. Brothers, K. N. Kudin, 
 V. N. Staroverov, T. A. Keith, R. Kobayashi, J. Normand, 
 K. Raghavachari, A. P. Rendell, J. C. Burant, S. S. Iyengar, 
 J. Tomasi, M. Cossi, J. M. Millam, M. Klene, C. Adamo, R. Cammi, 
 J. W. Ochterski, R. L. Martin, K. Morokuma, O. Farkas, 
 J. B. Foresman, and D. J. Fox, Gaussian, Inc., Wallingford CT, 2016.
 
 ******************************************
 Gaussian 16:  ES64L-G16RevA.03 25-Dec-2016
                24-Nov-2019 
 ******************************************
 -------------------------
 #p wb97xd/gen polar=gamma
 -------------------------
 1/30=1,38=101,83=3,84=49,172=1/1,6;
 2/12=2,17=6,18=5,40=1/2;
 3/5=7,11=2,25=1,30=1,74=-58/1,2,3;
 4/69=2/1;
 5/5=2,38=5,98=1/2;
 8/6=4,10=90,11=11/1;
 10/6=20001,13=10,60=-2,72=3/2;
 6/7=2,8=2,9=2,10=2,12=2,28=1/1;
 1/38=100,84=49/6(1);
 99/9=1/99;
 3/5=7,6=1,11=2,14=-3,25=1,30=1,74=-58,82=7/1,2,3;
 4/5=5,16=3,69=2/1;
 5/5=2,38=5,98=1/2;
 8/6=4,10=90,11=11/1;
 10/6=20001,13=10,60=-2,72=3/2;
 6/7=2,8=2,9=2,10=2,12=2,28=1/1;
 1/38=100,84=49/6(-6);
 99/9=1/99;
 Leave Link    1 at Sun Nov 24 00:00:39 2019, MaxMem=           0 cpu:               2.6 elap:               0.1
 (Enter /sob/g16/l101.exe)
 ---------------------------------------------------
 wb97xd/def-TZVP opted. aug-cc-pVTZ(-f,-d) calc this
 ---------------------------------------------------
 Symbolic Z-matrix:
 Charge =  0 Multiplicity = 1
 C                     0.61036   3.64175   0. 
 C                    -0.61036   3.64175   0. 
 C                    -1.87331   3.18207   0. 
 C                    -2.80843   2.39741   0. 
 C                    -3.48043   1.23347   0. 
 C                    -3.69241   0.03129   0. 
 C                    -3.45903  -1.29229   0. 
 C                    -2.84867  -2.34946   0. 
 C                    -1.8191   -3.21337   0. 
 C                    -0.672    -3.63088   0. 
 C                     0.672    -3.63088   0. 
 C                     1.8191   -3.21337   0. 
 C                     2.84867  -2.34946   0. 
 C                     3.45903  -1.29229   0. 
 C                     3.69241   0.03129   0. 
 C                     3.48043   1.23347   0. 
 C                     2.80843   2.39741   0. 
 C                     1.87331   3.18207   0. 
 
 ITRead=  0  0  0  0  0  0  0  0  0  0  0  0  0  0  0  0  0  0
 MicOpt= -1 -1 -1 -1 -1 -1 -1 -1 -1 -1 -1 -1 -1 -1 -1 -1 -1 -1
 NAtoms=     18 NQM=       18 NQMF=       0 NMMI=      0 NMMIF=      0
                NMic=       0 NMicF=      0.
                    Isotopes and Nuclear Properties:
 (Nuclear quadrupole moments (NQMom) in fm**2, nuclear magnetic moments (NMagM)
  in nuclear magnetons)

  Atom         1           2           3           4           5           6           7           8           9          10
 IAtWgt=          12          12          12          12          12          12          12          12          12          12
 AtmWgt=  12.0000000  12.0000000  12.0000000  12.0000000  12.0000000  12.0000000  12.0000000  12.0000000  12.0000000  12.0000000
 NucSpn=           0           0           0           0           0           0           0           0           0           0
 AtZEff=  -0.0000000  -0.0000000  -0.0000000  -0.0000000  -0.0000000  -0.0000000  -0.0000000  -0.0000000  -0.0000000  -0.0000000
 NQMom=    0.0000000   0.0000000   0.0000000   0.0000000   0.0000000   0.0000000   0.0000000   0.0000000   0.0000000   0.0000000
 NMagM=    0.0000000   0.0000000   0.0000000   0.0000000   0.0000000   0.0000000   0.0000000   0.0000000   0.0000000   0.0000000
 AtZNuc=   6.0000000   6.0000000   6.0000000   6.0000000   6.0000000   6.0000000   6.0000000   6.0000000   6.0000000   6.0000000

  Atom        11          12          13          14          15          16          17          18
 IAtWgt=          12          12          12          12          12          12          12          12
 AtmWgt=  12.0000000  12.0000000  12.0000000  12.0000000  12.0000000  12.0000000  12.0000000  12.0000000
 NucSpn=           0           0           0           0           0           0           0           0
 AtZEff=  -0.0000000  -0.0000000  -0.0000000  -0.0000000  -0.0000000  -0.0000000  -0.0000000  -0.0000000
 NQMom=    0.0000000   0.0000000   0.0000000   0.0000000   0.0000000   0.0000000   0.0000000   0.0000000
 NMagM=    0.0000000   0.0000000   0.0000000   0.0000000   0.0000000   0.0000000   0.0000000   0.0000000
 AtZNuc=   6.0000000   6.0000000   6.0000000   6.0000000   6.0000000   6.0000000   6.0000000   6.0000000
 Using perturbation frequencies:    0.000000
 Leave Link  101 at Sun Nov 24 00:00:39 2019, MaxMem= 26843545600 cpu:               3.2 elap:               0.1
 (Enter /sob/g16/l106.exe)
 Differentiate once with respect to electric field.
 Nuclear step= 0.001000 Angstroms, electric field step= 0.000333 atomic units, NStep=1.
 Leave Link  106 at Sun Nov 24 00:00:39 2019, MaxMem= 26843545600 cpu:               0.1 elap:               0.0
 (Enter /sob/g16/l202.exe)
                          Input orientation:                          
 ---------------------------------------------------------------------
 Center     Atomic      Atomic             Coordinates (Angstroms)
 Number     Number       Type             X           Y           Z
 ---------------------------------------------------------------------
      1          6           0        0.610361    3.641747    0.000000
      2          6           0       -0.610361    3.641747    0.000000
      3          6           0       -1.873306    3.182073    0.000000
      4          6           0       -2.808434    2.397408    0.000000
      5          6           0       -3.480433    1.233471    0.000000
      6          6           0       -3.692409    0.031294    0.000000
      7          6           0       -3.459026   -1.292285    0.000000
      8          6           0       -2.848665   -2.349462    0.000000
      9          6           0       -1.819103   -3.213367    0.000000
     10          6           0       -0.671999   -3.630879    0.000000
     11          6           0        0.671999   -3.630879    0.000000
     12          6           0        1.819103   -3.213367    0.000000
     13          6           0        2.848665   -2.349462    0.000000
     14          6           0        3.459026   -1.292285    0.000000
     15          6           0        3.692409    0.031294    0.000000
     16          6           0        3.480433    1.233471    0.000000
     17          6           0        2.808434    2.397408    0.000000
     18          6           0        1.873306    3.182073    0.000000
 ---------------------------------------------------------------------
                    Distance matrix (angstroms):
                    1          2          3          4          5
     1  C    0.000000
     2  C    1.220722   0.000000
     3  C    2.525847   1.343998   0.000000
     4  C    3.638205   2.525847   1.220723   0.000000
     5  C    4.747040   3.746613   2.525848   1.343999   0.000000
     6  C    5.616868   4.747040   3.638206   2.525848   1.220722
     7  C    6.395669   5.697330   4.747040   3.746612   2.525847
     8  C    6.918052   6.395670   5.616868   4.747040   3.638206
     9  C    7.272887   6.960865   6.395670   5.697330   4.747040
    10  C    7.384818   7.272887   6.918053   6.395670   5.616868
    11  C    7.272887   7.384818   7.272887   6.960866   6.395670
    12  C    6.960865   7.272887   7.384818   7.272888   6.918052
    13  C    6.395670   6.918052   7.272887   7.384818   7.272887
    14  C    5.697330   6.395669   6.960865   7.272887   7.384818
    15  C    4.747040   5.616868   6.395670   6.918053   7.272887
    16  C    3.746613   4.747040   5.697330   6.395670   6.960866
    17  C    2.525847   3.638205   4.747040   5.616868   6.395670
    18  C    1.343998   2.525847   3.746612   4.747040   5.697330
                    6          7          8          9         10
     6  C    0.000000
     7  C    1.343997   0.000000
     8  C    2.525847   1.220723   0.000000
     9  C    3.746612   2.525847   1.343998   0.000000
    10  C    4.747040   3.638206   2.525847   1.220723   0.000000
    11  C    5.697330   4.747040   3.746612   2.525847   1.343998
    12  C    6.395670   5.616868   4.747040   3.638206   2.525847
    13  C    6.960865   6.395670   5.697330   4.747040   3.746612
    14  C    7.272887   6.918052   6.395670   5.616868   4.747040
    15  C    7.384818   7.272887   6.960865   6.395670   5.697330
    16  C    7.272887   7.384818   7.272887   6.918052   6.395670
    17  C    6.918053   7.272887   7.384818   7.272888   6.960866
    18  C    6.395670   6.960865   7.272887   7.384818   7.272887
                   11         12         13         14         15
    11  C    0.000000
    12  C    1.220723   0.000000
    13  C    2.525847   1.343998   0.000000
    14  C    3.638206   2.525847   1.220723   0.000000
    15  C    4.747040   3.746612   2.525847   1.343997   0.000000
    16  C    5.616868   4.747040   3.638206   2.525847   1.220722
    17  C    6.395670   5.697330   4.747040   3.746612   2.525848
    18  C    6.918053   6.395670   5.616868   4.747040   3.638206
                   16         17         18
    16  C    0.000000
    17  C    1.343999   0.000000
    18  C    2.525848   1.220723   0.000000
 No symmetry labels for this point group.
 Stoichiometry    C18
 Framework group  D9H[SGH(C18)]
 Deg. of freedom     2
 Full point group                 D9H     NOp  36
 Largest Abelian subgroup         C2V     NOp   4
 Largest concise Abelian subgroup C2      NOp   2
                         Standard orientation:                         
 ---------------------------------------------------------------------
 Center     Atomic      Atomic             Coordinates (Angstroms)
 Number     Number       Type             X           Y           Z
 ---------------------------------------------------------------------
      1          6           0        0.610361    3.641747    0.000000
      2          6           0       -0.610361    3.641747   -0.000000
      3          6           0       -1.873306    3.182073    0.000000
      4          6           0       -2.808434    2.397408    0.000000
      5          6           0       -3.480433    1.233471    0.000000
      6          6           0       -3.692409    0.031294   -0.000000
      7          6           0       -3.459026   -1.292285    0.000000
      8          6           0       -2.848665   -2.349462    0.000000
      9          6           0       -1.819103   -3.213367    0.000000
     10          6           0       -0.671999   -3.630879   -0.000000
     11          6           0        0.671999   -3.630879    0.000000
     12          6           0        1.819103   -3.213367    0.000000
     13          6           0        2.848665   -2.349462    0.000000
     14          6           0        3.459026   -1.292285   -0.000000
     15          6           0        3.692409    0.031294    0.000000
     16          6           0        3.480433    1.233471    0.000000
     17          6           0        2.808434    2.397408    0.000000
     18          6           0        1.873306    3.182073   -0.000000
 ---------------------------------------------------------------------
 Rotational constants (GHZ):           0.3431964           0.3431964           0.1715982
 Leave Link  202 at Sun Nov 24 00:00:39 2019, MaxMem= 26843545600 cpu:               0.9 elap:               0.0
 (Enter /sob/g16/l301.exe)
 General basis read from cards:  (5D, 7F)
 Centers:       1      2      3      4      5      6      7      8      9     10
 Centers:      11     12     13     14     15     16     17     18
 S 10 1.00
     Exponent=  5.0557500670D+04 Coefficients=  5.5260000000D-05
     Exponent=  7.5247856010D+03 Coefficients=  4.3430000000D-04
     Exponent=  1.6943275990D+03 Coefficients=  2.3157000000D-03
     Exponent=  4.7282278900D+02 Coefficients=  9.8721200000D-03
     Exponent=  1.5171075200D+02 Coefficients=  3.5216720000D-02
     Exponent=  5.3918746000D+01 Coefficients=  1.0418521000D-01
     Exponent=  2.0659311000D+01 Coefficients=  2.4125207000D-01
     Exponent=  8.3839760000D+00 Coefficients=  3.8393711000D-01
     Exponent=  3.5770150000D+00 Coefficients=  3.0819995000D-01
     Exponent=  1.5471180000D+00 Coefficients=  6.8562990000D-02
 S 10 1.00
     Exponent=  5.0557500670D+04 Coefficients=  1.1780000000D-05
     Exponent=  7.5247856010D+03 Coefficients=  9.2470000000D-05
     Exponent=  1.6943275990D+03 Coefficients=  4.9504000000D-04
     Exponent=  4.7282278900D+02 Coefficients=  2.1131000000D-03
     Exponent=  1.5171075200D+02 Coefficients=  7.6740400000D-03
     Exponent=  5.3918746000D+01 Coefficients=  2.3371240000D-02
     Exponent=  2.0659311000D+01 Coefficients=  5.9086800000D-02
     Exponent=  8.3839760000D+00 Coefficients=  1.1334910000D-01
     Exponent=  3.5770150000D+00 Coefficients=  1.5103391000D-01
     Exponent=  1.5471180000D+00 Coefficients=  1.4638670000D-02
 S 1 1.00
     Exponent=  6.1301300000D-01 Coefficients=  1.0000000000D+00
 S 1 1.00
     Exponent=  2.4606800000D-01 Coefficients=  1.0000000000D+00
 S 1 1.00
     Exponent=  9.9087000000D-02 Coefficients=  1.0000000000D+00
 S 1 1.00
     Exponent=  3.9900490000D-02 Coefficients=  1.0000000000D+00
 P 5 1.00
     Exponent=  8.3333155000D+01 Coefficients=  1.2537900000D-03
     Exponent=  1.9557611000D+01 Coefficients=  9.6392100000D-03
     Exponent=  6.0803650000D+00 Coefficients=  4.2876900000D-02
     Exponent=  2.1793170000D+00 Coefficients=  1.3509233000D-01
     Exponent=  8.6515000000D-01 Coefficients=  2.8235059000D-01
 P 1 1.00
     Exponent=  3.6194400000D-01 Coefficients=  1.0000000000D+00
 P 1 1.00
     Exponent=  1.5474000000D-01 Coefficients=  1.0000000000D+00
 P 1 1.00
     Exponent=  6.5429000000D-02 Coefficients=  1.0000000000D+00
 P 1 1.00
     Exponent=  2.7665500000D-02 Coefficients=  1.0000000000D+00
 D 6 1.00
     Exponent=  2.1793170000D+00 Coefficients=  1.1792135000D-01
     Exponent=  8.6515000000D-01 Coefficients=  3.9116950000D-01
     Exponent=  3.6194400000D-01 Coefficients=  8.1390179000D-01
     Exponent=  1.5474000000D-01 Coefficients=  1.0000000000D+00
     Exponent=  6.5429000000D-02 Coefficients=  4.3641575000D-01
     Exponent=  2.7665500000D-02 Coefficients=  3.8028400000D-03
 D 6 1.00
     Exponent=  2.1793170000D+00 Coefficients=  8.1122600000D-03
     Exponent=  8.6515000000D-01 Coefficients=  6.7786540000D-02
     Exponent=  3.6194400000D-01 Coefficients=  3.3713240000D-01
     Exponent=  1.5474000000D-01 Coefficients=  9.6887394000D-01
     Exponent=  6.5429000000D-02 Coefficients=  1.0000000000D+00
     Exponent=  2.7665500000D-02 Coefficients=  2.0608160000D-02
 D 6 1.00
     Exponent=  2.1793170000D+00 Coefficients=  2.4355000000D-04
     Exponent=  8.6515000000D-01 Coefficients=  5.1265200000D-03
     Exponent=  3.6194400000D-01 Coefficients=  6.0943780000D-02
     Exponent=  1.5474000000D-01 Coefficients=  4.0967076000D-01
     Exponent=  6.5429000000D-02 Coefficients=  1.0000000000D+00
     Exponent=  2.7665500000D-02 Coefficients=  4.8738380000D-02
 ****
 Ernie: Thresh=  0.10000D-02 Tol=  0.10000D-05 Strict=F.
 Ernie:  180 primitive shells out of 918 were deleted.
 There are   252 symmetry adapted cartesian basis functions of A1  symmetry.
 There are    99 symmetry adapted cartesian basis functions of A2  symmetry.
 There are   252 symmetry adapted cartesian basis functions of B1  symmetry.
 There are    99 symmetry adapted cartesian basis functions of B2  symmetry.
 There are   225 symmetry adapted basis functions of A1  symmetry.
 There are    99 symmetry adapted basis functions of A2  symmetry.
 There are   225 symmetry adapted basis functions of B1  symmetry.
 There are    99 symmetry adapted basis functions of B2  symmetry.
   648 basis functions,  2142 primitive gaussians,   702 cartesian basis functions
    54 alpha electrons       54 beta electrons
       nuclear repulsion energy       802.9193552641 Hartrees.
 IExCor= 4639 DFT=T Ex+Corr=wB97XD ExCW=0 ScaHFX=  1.000000
 ScaDFX=  1.000000  1.000000  1.000000  1.000000 ScalE2=  1.000000  1.000000
 IRadAn=      5 IRanWt=     -1 IRanGd=            0 ICorTp=0 IEmpDi=121
 HFx  wShort=  0.000000 wLong=  0.200000 cFull=  0.222036 cShort=  0.000000 cLong=  0.777964
 DFx  wShort=  0.000000 wLong=  0.200000 cFull=  0.000000 cShort=  0.000000 cLong=  1.000000
 NAtoms=   18 NActive=   18 NUniq=    1 SFac= 4.00D+00 NAtFMM=   60 NAOKFM=F Big=F
 Integral buffers will be    131072 words long.
 Raffenetti 2 integral format.
 Two-electron integral symmetry is turned on.
 R6Disp:  Grimme-D2 Dispersion energy=       -0.0067608241 Hartrees.
 Nuclear repulsion after empirical dispersion term =      802.9125944400 Hartrees.
 Leave Link  301 at Sun Nov 24 00:00:39 2019, MaxMem= 26843545600 cpu:               5.8 elap:               0.2
 (Enter /sob/g16/l302.exe)
 NPDir=0 NMtPBC=     1 NCelOv=     1 NCel=       1 NClECP=     1 NCelD=      1
         NCelK=      1 NCelE2=     1 NClLst=     1 CellRange=     0.0.
 One-electron integrals computed using PRISM.
 One-electron integral symmetry used in STVInt
 NBasis=   648 RedAO= T EigKep=  1.04D-06  NBF=   225    99   225    99
 NBsUse=   632 1.00D-06 EigRej=  8.47D-07 NBFU=   221    96   217    98
 Precomputing XC quadrature grid using
 IXCGrd= 4 IRadAn=           5 IRanWt=          -1 IRanGd=           0 AccXCQ= 0.00D+00.
 Generated NRdTot=       0 NPtTot=           0 NUsed=           0 NTot=          32
 NSgBfM=   689   689   689   689   689 MxSgAt=    18 MxSgA2=    18.
 Leave Link  302 at Sun Nov 24 00:00:40 2019, MaxMem= 26843545600 cpu:              44.9 elap:               1.3
 (Enter /sob/g16/l303.exe)
 DipDrv:  MaxL=1.
 Leave Link  303 at Sun Nov 24 00:00:41 2019, MaxMem= 26843545600 cpu:               7.6 elap:               0.2
 (Enter /sob/g16/l401.exe)
 ExpMin= 2.77D-02 ExpMax= 5.06D+04 ExpMxC= 4.73D+02 IAcc=3 IRadAn=         5 AccDes= 0.00D+00
 Harris functional with IExCor= 4639 and IRadAn=       5 diagonalized for initial guess.
 HarFok:  IExCor= 4639 AccDes= 0.00D+00 IRadAn=         5 IDoV= 1 UseB2=F ITyADJ=14
 ICtDFT=  3500011 ScaDFX=  1.000000  1.000000  1.000000  1.000000
 FoFCou: FMM=F IPFlag=           0 FMFlag=      100000 FMFlg1=           0
         NFxFlg=           0 DoJE=T BraDBF=F KetDBF=T FulRan=T
         wScrn=  0.000000 ICntrl=       500 IOpCl=  0 I1Cent=   200000004 NGrid=           0
         NMat0=    1 NMatS0=      1 NMatT0=    0 NMatD0=    1 NMtDS0=    0 NMtDT0=    0
 Petite list used in FoFCou.
 Harris En= -655.881150646896    
 JPrj=0 DoOrth=F DoCkMO=F.
 Initial guess orbital symmetries:
 Leave Link  401 at Sun Nov 24 00:00:42 2019, MaxMem= 26843545600 cpu:              48.8 elap:               1.4
 (Enter /sob/g16/l502.exe)
 Integral symmetry usage will be decided dynamically.
 Closed shell SCF:
 Using DIIS extrapolation, IDIIS=  1040.
 NGot= 26843545600 LenX= 26842516068 LenY= 26842022562
 Requested convergence on RMS density matrix=1.00D-08 within 128 cycles.
 Requested convergence on MAX density matrix=1.00D-06.
 Requested convergence on             energy=1.00D-06.
 No special actions if energy rises.
 Fock matrices will be formed incrementally for  20 cycles.

 Cycle   1  Pass 1  IDiag  1:
 FoFJK:  IHMeth= 1 ICntrl=       0 DoSepK=T KAlg= 0 I1Cent=           0 FoldK=F
 IRaf=         1 NMat=       1 IRICut=       1 DoRegI=T DoRafI=F ISym2E= 1 IDoP0=0 IntGTp=1.
 FoFCou: FMM=F IPFlag=           0 FMFlag=      100000 FMFlg1=           0
         NFxFlg=           0 DoJE=T BraDBF=F KetDBF=F FulRan=T
         wScrn=  0.000000 ICntrl=       500 IOpCl=  0 I1Cent=           0 NGrid=           0
         NMat0=    1 NMatS0=      1 NMatT0=    0 NMatD0=    1 NMtDS0=    0 NMtDT0=    0
 Petite list used in FoFCou.
 E= -685.080091158140    
 DIIS: error= 1.12D-01 at cycle   1 NSaved=   1.
 NSaved= 1 IEnMin= 1 EnMin= -685.080091158140     IErMin= 1 ErrMin= 1.12D-01
 ErrMax= 1.12D-01  0.00D+00 EMaxC= 1.00D-01 BMatC= 1.48D+00 BMatP= 1.48D+00
 IDIUse=3 WtCom= 0.00D+00 WtEn= 1.00D+00
 Coeff-Com:  0.100D+01
 Coeff-En:   0.100D+01
 Coeff:      0.100D+01
 Gap=     0.237 Goal=   None    Shift=    0.000
 GapD=    0.237 DampG=1.000 DampE=0.250 DampFc=0.2500 IDamp=-1.
 Damping current iteration by 2.50D-01
 RMSDP=3.84D-02 MaxDP=1.75D+00              OVMax= 4.02D-02

 Cycle   2  Pass 1  IDiag  1:
 RMSU=  2.69D-03    CP:  8.73D-01
 E= -685.124909558758     Delta-E=       -0.044818400618 Rises=F Damp=T
 DIIS: error= 8.22D-02 at cycle   2 NSaved=   2.
 NSaved= 2 IEnMin= 2 EnMin= -685.124909558758     IErMin= 2 ErrMin= 8.22D-02
 ErrMax= 8.22D-02  0.00D+00 EMaxC= 1.00D-01 BMatC= 8.00D-01 BMatP= 1.48D+00
 IDIUse=3 WtCom= 1.78D-01 WtEn= 8.22D-01
 Coeff-Com: -0.276D+01 0.376D+01
 Coeff-En:   0.000D+00 0.100D+01
 Coeff:     -0.492D+00 0.149D+01
 Gap=     0.240 Goal=   None    Shift=    0.000
 RMSDP=2.87D-02 MaxDP=1.33D+00 DE=-4.48D-02 OVMax= 1.07D-02

 Cycle   3  Pass 1  IDiag  1:
 RMSU=  2.50D-03    CP:  4.93D-01  3.00D+00
 E= -685.250841892851     Delta-E=       -0.125932334093 Rises=F Damp=F
 DIIS: error= 4.14D-03 at cycle   3 NSaved=   3.
 NSaved= 3 IEnMin= 3 EnMin= -685.250841892851     IErMin= 3 ErrMin= 4.14D-03
 ErrMax= 4.14D-03  0.00D+00 EMaxC= 1.00D-01 BMatC= 3.18D-03 BMatP= 8.00D-01
 IDIUse=3 WtCom= 9.59D-01 WtEn= 4.14D-02
 Coeff-Com:  0.239D+01-0.317D+01 0.178D+01
 Coeff-En:   0.000D+00 0.000D+00 0.100D+01
 Coeff:      0.229D+01-0.304D+01 0.174D+01
 Gap=     0.245 Goal=   None    Shift=    0.000
 RMSDP=1.15D-03 MaxDP=2.92D-02 DE=-1.26D-01 OVMax= 2.20D-02

 Cycle   4  Pass 1  IDiag  1:
 RMSU=  1.13D-03    CP:  4.95D-01  3.00D+00  9.40D-01
 E= -685.253517364291     Delta-E=       -0.002675471440 Rises=F Damp=F
 DIIS: error= 7.96D-04 at cycle   4 NSaved=   4.
 NSaved= 4 IEnMin= 4 EnMin= -685.253517364291     IErMin= 4 ErrMin= 7.96D-04
 ErrMax= 7.96D-04  0.00D+00 EMaxC= 1.00D-01 BMatC= 4.24D-05 BMatP= 3.18D-03
 IDIUse=3 WtCom= 9.92D-01 WtEn= 7.96D-03
 Coeff-Com: -0.612D-01 0.779D-01-0.929D-01 0.108D+01
 Coeff-En:   0.000D+00 0.000D+00 0.000D+00 0.100D+01
 Coeff:     -0.607D-01 0.773D-01-0.921D-01 0.108D+01
 Gap=     0.247 Goal=   None    Shift=    0.000
 RMSDP=2.78D-04 MaxDP=6.29D-03 DE=-2.68D-03 OVMax= 9.18D-03

 Cycle   5  Pass 1  IDiag  1:
 RMSU=  2.06D-04    CP:  4.96D-01  3.00D+00  9.67D-01  1.15D+00
 E= -685.253818182377     Delta-E=       -0.000300818086 Rises=F Damp=F
 DIIS: error= 4.17D-04 at cycle   5 NSaved=   5.
 NSaved= 5 IEnMin= 5 EnMin= -685.253818182377     IErMin= 5 ErrMin= 4.17D-04
 ErrMax= 4.17D-04  0.00D+00 EMaxC= 1.00D-01 BMatC= 7.98D-06 BMatP= 4.24D-05
 IDIUse=3 WtCom= 9.96D-01 WtEn= 4.17D-03
 Coeff-Com: -0.296D+00 0.395D+00-0.187D+00-0.375D+00 0.146D+01
 Coeff-En:   0.000D+00 0.000D+00 0.000D+00 0.000D+00 0.100D+01
 Coeff:     -0.295D+00 0.393D+00-0.186D+00-0.373D+00 0.146D+01
 Gap=     0.248 Goal=   None    Shift=    0.000
 RMSDP=1.83D-04 MaxDP=3.91D-03 DE=-3.01D-04 OVMax= 7.28D-03

 Cycle   6  Pass 1  IDiag  1:
 RMSU=  5.66D-05    CP:  4.96D-01  3.00D+00  9.71D-01  1.24D+00  1.63D+00
 E= -685.253912658981     Delta-E=       -0.000094476604 Rises=F Damp=F
 DIIS: error= 9.43D-05 at cycle   6 NSaved=   6.
 NSaved= 6 IEnMin= 6 EnMin= -685.253912658981     IErMin= 6 ErrMin= 9.43D-05
 ErrMax= 9.43D-05  0.00D+00 EMaxC= 1.00D-01 BMatC= 7.02D-07 BMatP= 7.98D-06
 IDIUse=1 WtCom= 1.00D+00 WtEn= 0.00D+00
 Coeff-Com:  0.372D-01-0.489D-01 0.368D-01-0.134D+00-0.766D-01 0.119D+01
 Coeff:      0.372D-01-0.489D-01 0.368D-01-0.134D+00-0.766D-01 0.119D+01
 Gap=     0.248 Goal=   None    Shift=    0.000
 RMSDP=7.47D-05 MaxDP=2.24D-03 DE=-9.45D-05 OVMax= 2.12D-03

 Cycle   7  Pass 1  IDiag  1:
 RMSU=  2.48D-05    CP:  4.97D-01  3.00D+00  9.76D-01  1.27D+00  1.84D+00
                    CP:  1.14D+00
 E= -685.253918584786     Delta-E=       -0.000005925805 Rises=F Damp=F
 DIIS: error= 8.82D-06 at cycle   7 NSaved=   7.
 NSaved= 7 IEnMin= 7 EnMin= -685.253918584786     IErMin= 7 ErrMin= 8.82D-06
 ErrMax= 8.82D-06  0.00D+00 EMaxC= 1.00D-01 BMatC= 9.85D-09 BMatP= 7.02D-07
 IDIUse=1 WtCom= 1.00D+00 WtEn= 0.00D+00
 Coeff-Com: -0.326D-02 0.428D-02-0.332D-02 0.284D-01-0.198D-01-0.224D+00
 Coeff-Com:  0.122D+01
 Coeff:     -0.326D-02 0.428D-02-0.332D-02 0.284D-01-0.198D-01-0.224D+00
 Coeff:      0.122D+01
 Gap=     0.248 Goal=   None    Shift=    0.000
 RMSDP=8.78D-06 MaxDP=3.74D-04 DE=-5.93D-06 OVMax= 2.37D-04

 Cycle   8  Pass 1  IDiag  1:
 RMSU=  3.60D-06    CP:  4.97D-01  3.00D+00  9.76D-01  1.27D+00  1.86D+00
                    CP:  1.16D+00  1.16D+00
 E= -685.253918653758     Delta-E=       -0.000000068972 Rises=F Damp=F
 DIIS: error= 7.97D-07 at cycle   8 NSaved=   8.
 NSaved= 8 IEnMin= 8 EnMin= -685.253918653758     IErMin= 8 ErrMin= 7.97D-07
 ErrMax= 7.97D-07  0.00D+00 EMaxC= 1.00D-01 BMatC= 1.07D-10 BMatP= 9.85D-09
 IDIUse=1 WtCom= 1.00D+00 WtEn= 0.00D+00
 Coeff-Com:  0.638D-03-0.852D-03 0.366D-03-0.184D-02 0.301D-02 0.152D-01
 Coeff-Com: -0.161D+00 0.114D+01
 Coeff:      0.638D-03-0.852D-03 0.366D-03-0.184D-02 0.301D-02 0.152D-01
 Coeff:     -0.161D+00 0.114D+01
 Gap=     0.248 Goal=   None    Shift=    0.000
 RMSDP=7.50D-07 MaxDP=1.86D-05 DE=-6.90D-08 OVMax= 1.26D-05

 Cycle   9  Pass 1  IDiag  1:
 RMSU=  3.43D-07    CP:  4.97D-01  3.00D+00  9.77D-01  1.27D+00  1.86D+00
                    CP:  1.16D+00  1.16D+00  1.17D+00
 E= -685.253918654548     Delta-E=       -0.000000000790 Rises=F Damp=F
 DIIS: error= 4.51D-07 at cycle   9 NSaved=   9.
 NSaved= 9 IEnMin= 9 EnMin= -685.253918654548     IErMin= 9 ErrMin= 4.51D-07
 ErrMax= 4.51D-07  0.00D+00 EMaxC= 1.00D-01 BMatC= 1.08D-11 BMatP= 1.07D-10
 IDIUse=1 WtCom= 1.00D+00 WtEn= 0.00D+00
 Coeff-Com:  0.128D-04-0.145D-04 0.515D-04-0.750D-03 0.100D-03 0.552D-02
 Coeff-Com: -0.167D-01-0.143D+00 0.116D+01
 Coeff:      0.128D-04-0.145D-04 0.515D-04-0.750D-03 0.100D-03 0.552D-02
 Coeff:     -0.167D-01-0.143D+00 0.116D+01
 Gap=     0.248 Goal=   None    Shift=    0.000
 RMSDP=1.74D-07 MaxDP=5.67D-06 DE=-7.90D-10 OVMax= 6.92D-06

 Cycle  10  Pass 1  IDiag  1:
 RMSU=  9.03D-08    CP:  4.97D-01  3.00D+00  9.77D-01  1.27D+00  1.86D+00
                    CP:  1.16D+00  1.15D+00  1.19D+00  1.23D+00
 E= -685.253918654600     Delta-E=       -0.000000000053 Rises=F Damp=F
 DIIS: error= 2.63D-07 at cycle  10 NSaved=  10.
 NSaved=10 IEnMin=10 EnMin= -685.253918654600     IErMin=10 ErrMin= 2.63D-07
 ErrMax= 2.63D-07  0.00D+00 EMaxC= 1.00D-01 BMatC= 2.35D-12 BMatP= 1.08D-11
 IDIUse=1 WtCom= 1.00D+00 WtEn= 0.00D+00
 Coeff-Com: -0.125D-03 0.166D-03-0.860D-04 0.584D-03-0.524D-03-0.425D-02
 Coeff-Com:  0.325D-01-0.171D+00-0.231D+00 0.137D+01
 Coeff:     -0.125D-03 0.166D-03-0.860D-04 0.584D-03-0.524D-03-0.425D-02
 Coeff:      0.325D-01-0.171D+00-0.231D+00 0.137D+01
 Gap=     0.248 Goal=   None    Shift=    0.000
 RMSDP=8.69D-08 MaxDP=2.63D-06 DE=-5.25D-11 OVMax= 4.77D-06

 Cycle  11  Pass 1  IDiag  1:
 RMSU=  4.54D-08    CP:  4.97D-01  3.00D+00  9.77D-01  1.27D+00  1.86D+00
                    CP:  1.16D+00  1.15D+00  1.19D+00  1.39D+00  1.29D+00
 E= -685.253918654661     Delta-E=       -0.000000000061 Rises=F Damp=F
 DIIS: error= 5.83D-08 at cycle  11 NSaved=  11.
 NSaved=11 IEnMin=11 EnMin= -685.253918654661     IErMin=11 ErrMin= 5.83D-08
 ErrMax= 5.83D-08  0.00D+00 EMaxC= 1.00D-01 BMatC= 1.80D-13 BMatP= 2.35D-12
 IDIUse=1 WtCom= 1.00D+00 WtEn= 0.00D+00
 Coeff-Com:  0.411D-04-0.549D-04 0.221D-04-0.554D-04 0.981D-04 0.389D-03
 Coeff-Com: -0.632D-02 0.682D-01-0.114D+00-0.317D+00 0.137D+01
 Coeff:      0.411D-04-0.549D-04 0.221D-04-0.554D-04 0.981D-04 0.389D-03
 Coeff:     -0.632D-02 0.682D-01-0.114D+00-0.317D+00 0.137D+01
 Gap=     0.248 Goal=   None    Shift=    0.000
 RMSDP=5.82D-08 MaxDP=1.22D-06 DE=-6.09D-11 OVMax= 1.35D-06

 Cycle  12  Pass 1  IDiag  1:
 RMSU=  4.74D-08    CP:  4.97D-01  3.00D+00  9.77D-01  1.27D+00  1.86D+00
                    CP:  1.16D+00  1.15D+00  1.19D+00  1.42D+00  1.55D+00
                    CP:  8.29D-01
 E= -685.253918654571     Delta-E=        0.000000000090 Rises=F Damp=F
 DIIS: error= 6.91D-09 at cycle  12 NSaved=  12.
 NSaved=12 IEnMin=11 EnMin= -685.253918654661     IErMin=12 ErrMin= 6.91D-09
 ErrMax= 6.91D-09  0.00D+00 EMaxC= 1.00D-01 BMatC= 5.39D-15 BMatP= 1.80D-13
 IDIUse=1 WtCom= 1.00D+00 WtEn= 0.00D+00
 Coeff-Com:  0.671D-05-0.892D-05 0.437D-05-0.269D-04 0.270D-04 0.188D-03
 Coeff-Com: -0.164D-02 0.107D-01 0.813D-03-0.753D-01 0.129D+00 0.937D+00
 Coeff:      0.671D-05-0.892D-05 0.437D-05-0.269D-04 0.270D-04 0.188D-03
 Coeff:     -0.164D-02 0.107D-01 0.813D-03-0.753D-01 0.129D+00 0.937D+00
 Gap=     0.248 Goal=   None    Shift=    0.000
 RMSDP=3.47D-08 MaxDP=8.97D-07 DE= 8.96D-11 OVMax= 8.52D-08

 Cycle  13  Pass 1  IDiag  1:
 RMSU=  1.27D-08    CP:  4.97D-01  3.00D+00  9.77D-01  1.27D+00  1.86D+00
                    CP:  1.16D+00  1.15D+00  1.19D+00  1.42D+00  1.42D+00
                    CP:  1.32D+00  6.06D-01
 E= -685.253918653980     Delta-E=        0.000000000591 Rises=F Damp=F
 DIIS: error= 3.59D-08 at cycle  13 NSaved=  13.
 NSaved=13 IEnMin=11 EnMin= -685.253918654661     IErMin=12 ErrMin= 6.91D-09
 ErrMax= 3.59D-08  0.00D+00 EMaxC= 1.00D-01 BMatC= 5.79D-14 BMatP= 5.39D-15
 IDIUse=1 WtCom= 1.00D+00 WtEn= 0.00D+00
 Coeff-Com:  0.673D-05-0.895D-05 0.440D-05-0.272D-04 0.271D-04 0.191D-03
 Coeff-Com: -0.165D-02 0.107D-01 0.117D-02-0.756D-01 0.126D+00 0.964D+00
 Coeff-Com: -0.248D-01
 Coeff:      0.673D-05-0.895D-05 0.440D-05-0.272D-04 0.271D-04 0.191D-03
 Coeff:     -0.165D-02 0.107D-01 0.117D-02-0.756D-01 0.126D+00 0.964D+00
 Coeff:     -0.248D-01
 Gap=     0.248 Goal=   None    Shift=    0.000
 RMSDP=1.08D-08 MaxDP=3.04D-07 DE= 5.91D-10 OVMax= 9.18D-10

 Cycle  14  Pass 1  IDiag  1:
 RMSU=  4.92D-09    CP:  4.97D-01  3.00D+00  9.77D-01  1.27D+00  1.86D+00
                    CP:  1.16D+00  1.15D+00  1.19D+00  1.42D+00  1.48D+00
                    CP:  1.23D+00  5.94D-01  8.28D-01
 E= -685.253918653971     Delta-E=        0.000000000009 Rises=F Damp=F
 DIIS: error= 3.75D-08 at cycle  14 NSaved=  14.
 NSaved=14 IEnMin=11 EnMin= -685.253918654661     IErMin=12 ErrMin= 6.91D-09
 ErrMax= 3.75D-08  0.00D+00 EMaxC= 1.00D-01 BMatC= 6.56D-14 BMatP= 5.39D-15
 IDIUse=1 WtCom= 1.00D+00 WtEn= 0.00D+00
 Coeff-Com:  0.123D-05-0.160D-05 0.154D-05-0.226D-04 0.161D-04 0.158D-03
 Coeff-Com: -0.908D-03 0.169D-02 0.188D-01-0.385D-01-0.634D-01 0.122D+01
 Coeff-Com: -0.140D+01 0.125D+01
 Coeff:      0.123D-05-0.160D-05 0.154D-05-0.226D-04 0.161D-04 0.158D-03
 Coeff:     -0.908D-03 0.169D-02 0.188D-01-0.385D-01-0.634D-01 0.122D+01
 Coeff:     -0.140D+01 0.125D+01
 Gap=     0.248 Goal=   None    Shift=    0.000
 RMSDP=4.37D-08 MaxDP=1.01D-06 DE= 9.32D-12 OVMax= 8.48D-09

 Cycle  15  Pass 1  IDiag  1:
 RMSU=  2.29D-08    CP:  4.97D-01  3.00D+00  9.77D-01  1.27D+00  1.86D+00
                    CP:  1.16D+00  1.15D+00  1.19D+00  1.43D+00  1.53D+00
                    CP:  1.15D+00  1.25D+00  2.60D-01  2.92D+00
 E= -685.253918654330     Delta-E=       -0.000000000359 Rises=F Damp=F
 DIIS: error= 2.53D-08 at cycle  15 NSaved=  15.
 NSaved=15 IEnMin=11 EnMin= -685.253918654661     IErMin=12 ErrMin= 6.91D-09
 ErrMax= 2.53D-08  0.00D+00 EMaxC= 1.00D-01 BMatC= 3.37D-14 BMatP= 5.39D-15
 IDIUse=1 WtCom= 1.00D+00 WtEn= 0.00D+00
 Coeff-Com: -0.591D-07 0.102D-06 0.407D-06-0.980D-05 0.577D-05 0.691D-04
 Coeff-Com: -0.321D-03-0.428D-03 0.111D-01-0.132D-01-0.531D-01 0.600D+00
 Coeff-Com:  0.114D+01-0.190D+01 0.122D+01
 Coeff:     -0.591D-07 0.102D-06 0.407D-06-0.980D-05 0.577D-05 0.691D-04
 Coeff:     -0.321D-03-0.428D-03 0.111D-01-0.132D-01-0.531D-01 0.600D+00
 Coeff:      0.114D+01-0.190D+01 0.122D+01
 Gap=     0.248 Goal=   None    Shift=    0.000
 RMSDP=4.96D-08 MaxDP=9.89D-07 DE=-3.59D-10 OVMax= 6.71D-09

 Cycle  16  Pass 1  IDiag  1:
 RMSU=  1.58D-08    CP:  4.97D-01  3.00D+00  9.77D-01  1.27D+00  1.86D+00
                    CP:  1.16D+00  1.15D+00  1.20D+00  1.43D+00  1.39D+00
                    CP:  1.34D+00  1.63D+00  9.97D-01  6.56D-01  1.38D+00
 E= -685.253918654385     Delta-E=       -0.000000000055 Rises=F Damp=F
 DIIS: error= 2.37D-08 at cycle  16 NSaved=  16.
 NSaved=16 IEnMin=11 EnMin= -685.253918654661     IErMin=12 ErrMin= 6.91D-09
 ErrMax= 2.37D-08  0.00D+00 EMaxC= 1.00D-01 BMatC= 3.02D-14 BMatP= 5.39D-15
 IDIUse=1 WtCom= 1.00D+00 WtEn= 0.00D+00
 Large coefficients: NSaved= 16 BigCof=    0.00 CofMax=   10.00 Det=-1.15D-16
 Inversion failed.  Reducing to 15 matrices.
 Coeff-Com:  0.269D-07 0.510D-06-0.103D-04 0.526D-05 0.738D-04-0.319D-03
 Coeff-Com: -0.771D-03 0.123D-01-0.121D-01-0.637D-01 0.614D+00 0.129D+01
 Coeff-Com: -0.203D+01 0.127D+01-0.849D-01
 Coeff:      0.269D-07 0.510D-06-0.103D-04 0.526D-05 0.738D-04-0.319D-03
 Coeff:     -0.771D-03 0.123D-01-0.121D-01-0.637D-01 0.614D+00 0.129D+01
 Coeff:     -0.203D+01 0.127D+01-0.849D-01
 Gap=     0.248 Goal=   None    Shift=    0.000
 RMSDP=5.02D-09 MaxDP=1.51D-07 DE=-5.48D-11 OVMax= 9.09D-10

 SCF Done:  E(RwB97XD) =  -685.253918654     A.U. after   16 cycles
            NFock= 16  Conv=0.50D-08     -V/T= 2.0043
 KE= 6.823366229029D+02 PE=-3.194743612191D+03 EE= 1.024240476193D+03
 Leave Link  502 at Sun Nov 24 00:03:23 2019, MaxMem= 26843545600 cpu:            5772.8 elap:             160.6
 (Enter /sob/g16/l801.exe)
 DoSCS=F DFT=T ScalE2(SS,OS)=  1.000000  1.000000
 Range of M.O.s used for correlation:     1   632
 NBasis=   648 NAE=    54 NBE=    54 NFC=     0 NFV=     0
 NROrb=    632 NOA=    54 NOB=    54 NVA=   578 NVB=   578

 **** Warning!!: The largest alpha MO coefficient is  0.16643893D+03

 Leave Link  801 at Sun Nov 24 00:03:23 2019, MaxMem= 26843545600 cpu:               1.3 elap:               0.1
 (Enter /sob/g16/l1002.exe)
 Minotr:  Closed shell wavefunction.
          Direct CPHF calculation.
          Differentiating once with respect to electric field.
                with respect to dipole field.
          Electric field/nuclear overlap derivatives assumed to be zero.
          Requested convergence is 1.0D-08 RMS, and 1.0D-07 maximum.
          Secondary convergence is 1.0D-12 RMS, and 1.0D-12 maximum.
          NewPWx=F KeepS1=T KeepF1=T KeepIn=T MapXYZ=F SortEE=F KeepMc=T.
         8263 words used for storage of precomputed grid.
 Two-electron integral symmetry used by symmetrizing perturbed Fock matrices.
          MDV=   26843545600 using IRadAn=       4.
          Solving linear equations simultaneously, MaxMat=     360.
          Doing perturbations at frequencies    0.000000
          There are     3 degrees of freedom in the 1st order CPHF.  IDoFFX=0 NUNeed=     3.
      3 vectors produced by pass  0 Test12= 2.08D-12 3.33D-08 XBig12= 1.07D+03 1.09D+01.
 AX will form     3 AO Fock derivatives at one time.
 FoFJK:  IHMeth= 1 ICntrl=       0 DoSepK=T KAlg= 0 I1Cent=           0 FoldK=F
 IRaf=         1 NMat=       6 IRICut=       1 DoRegI=T DoRafI=F ISym2E=-1 IDoP0=0 IntGTp=1.
 FoFCou: FMM=F IPFlag=           0 FMFlag=      100000 FMFlg1=           0
         NFxFlg=           0 DoJE=T BraDBF=F KetDBF=F FulRan=T
         wScrn=  0.000000 ICntrl=       500 IOpCl=  0 I1Cent=           0 NGrid=           0
         NMat0=    3 NMatS0=      3 NMatT0=    0 NMatD0=    3 NMtDS0=    0 NMtDT0=    0
 Petite list used in FoFCou.
      3 vectors produced by pass  1 Test12= 2.08D-12 3.33D-08 XBig12= 1.93D+02 1.17D+00.
      3 vectors produced by pass  2 Test12= 2.08D-12 3.33D-08 XBig12= 2.69D+01 6.88D-01.
      3 vectors produced by pass  3 Test12= 2.08D-12 3.33D-08 XBig12= 2.07D+00 1.21D-01.
      3 vectors produced by pass  4 Test12= 2.08D-12 3.33D-08 XBig12= 2.58D-01 1.08D-01.
      3 vectors produced by pass  5 Test12= 2.08D-12 3.33D-08 XBig12= 4.63D-02 5.08D-02.
      3 vectors produced by pass  6 Test12= 2.08D-12 3.33D-08 XBig12= 1.55D-03 5.32D-03.
      3 vectors produced by pass  7 Test12= 2.08D-12 3.33D-08 XBig12= 7.47D-05 1.26D-03.
      3 vectors produced by pass  8 Test12= 2.08D-12 3.33D-08 XBig12= 5.84D-05 8.99D-04.
      3 vectors produced by pass  9 Test12= 2.08D-12 3.33D-08 XBig12= 3.40D-06 3.26D-04.
      2 vectors produced by pass 10 Test12= 2.08D-12 3.33D-08 XBig12= 2.73D-07 9.38D-05.
      2 vectors produced by pass 11 Test12= 2.08D-12 3.33D-08 XBig12= 2.08D-07 8.52D-05.
      2 vectors produced by pass 12 Test12= 2.08D-12 3.33D-08 XBig12= 1.55D-08 2.63D-05.
      2 vectors produced by pass 13 Test12= 2.08D-12 3.33D-08 XBig12= 8.22D-09 2.04D-05.
      2 vectors produced by pass 14 Test12= 2.08D-12 3.33D-08 XBig12= 2.49D-09 9.19D-06.
      2 vectors produced by pass 15 Test12= 2.08D-12 3.33D-08 XBig12= 5.16D-10 4.08D-06.
      2 vectors produced by pass 16 Test12= 2.08D-12 3.33D-08 XBig12= 5.27D-11 2.02D-06.
      2 vectors produced by pass 17 Test12= 2.08D-12 3.33D-08 XBig12= 5.24D-12 3.15D-07.
      2 vectors produced by pass 18 Test12= 2.08D-12 3.33D-08 XBig12= 1.95D-12 1.93D-07.
      1 vectors produced by pass 19 Test12= 2.08D-12 3.33D-08 XBig12= 7.33D-14 5.37D-08.
 InvSVY:  IOpt=1 It=  1 EMax= 1.42D-14
 Solved reduced A of dimension    49 with     3 vectors.
 FullF1:  Do perturbations      1 to       3.
 SCF Polarizability for W=    0.000000:
                1             2             3 
      1  0.391995D+03
      2  0.000000D+00  0.391995D+03
      3  0.000000D+00  0.000000D+00  0.976926D+02
 Isotropic polarizability for W=    0.000000      293.89 Bohr**3.
 SCF Static Hyperpolarizability:
 K=  1 block:
                1 
      1  0.000000D+00
 K=  2 block:
                1             2 
      1  0.281660D-02
      2  0.000000D+00 -0.245186D-01
 K=  3 block:
                1             2             3 
      1  0.000000D+00
      2  0.000000D+00  0.000000D+00
      3  0.000000D+00  0.516371D-02  0.000000D+00
 End of Minotr F.D. properties on file   721 Mask=      11 NFrqRd=     1 NDeriv=     1 ND12= 1 LenFil=      30:
 Frequencies=    0.000000
 Property number 1 -- Alpha(-w,w) frequency  1    0.000000:
                 1             2             3 
      1   0.391995D+03  0.000000D+00  0.000000D+00
      2   0.000000D+00  0.391995D+03  0.000000D+00
      3   0.000000D+00  0.000000D+00  0.976926D+02
 Property number 5 -- Beta(-w,w,0) frequency  1    0.000000:
                 1 
      1   0.000000D+00
      2   0.281660D-02
      3   0.000000D+00
      4   0.000000D+00
      5   0.000000D+00
      6   0.000000D+00
      7   0.281660D-02
      8   0.000000D+00
      9  -0.245186D-01
     10   0.000000D+00
     11   0.000000D+00
     12   0.516371D-02
     13   0.000000D+00
     14   0.000000D+00
     15   0.000000D+00
     16   0.000000D+00
     17   0.516371D-02
     18   0.000000D+00
 End of Minotr F.D. properties file   722 does not exist.
 End of Minotr F.D. properties file   788 does not exist.
 Leave Link 1002 at Sun Nov 24 00:34:23 2019, MaxMem= 26843545600 cpu:           66975.0 elap:            1860.6
 (Enter /sob/g16/l601.exe)
 Copying SCF densities to generalized density rwf, IOpCl= 0 IROHF=0.

 **********************************************************************

            Population analysis using the SCF density.

 **********************************************************************

 Orbital symmetries:
 Unable to determine electronic state:  an orbital has unidentified symmetry.
 Alpha  occ. eigenvalues --  -10.35274 -10.35274 -10.35274 -10.35254 -10.35254
 Alpha  occ. eigenvalues --  -10.35226 -10.35226 -10.35203 -10.35203 -10.35053
 Alpha  occ. eigenvalues --  -10.35053 -10.35029 -10.35029 -10.35000 -10.35000
 Alpha  occ. eigenvalues --  -10.34981 -10.34981 -10.34974  -0.97247  -0.96494
 Alpha  occ. eigenvalues --   -0.96494  -0.94297  -0.94297  -0.90849  -0.90849
 Alpha  occ. eigenvalues --   -0.86594  -0.86594  -0.80521  -0.80521  -0.75537
 Alpha  occ. eigenvalues --   -0.75537  -0.70829  -0.70829  -0.67381  -0.67381
 Alpha  occ. eigenvalues --   -0.66089  -0.52051  -0.51940  -0.50776  -0.50776
 Alpha  occ. eigenvalues --   -0.50727  -0.50727  -0.47009  -0.47009  -0.46911
 Alpha  occ. eigenvalues --   -0.46911  -0.40543  -0.40543  -0.40262  -0.40262
 Alpha  occ. eigenvalues --   -0.31483  -0.31483  -0.31116  -0.31116
 Alpha virt. eigenvalues --   -0.06313  -0.06313  -0.06247  -0.06247   0.03466
 Alpha virt. eigenvalues --    0.03466   0.04152   0.04152   0.04550   0.04550
 Alpha virt. eigenvalues --    0.05111   0.05528   0.05897   0.05897   0.06017
 Alpha virt. eigenvalues --    0.06017   0.07066   0.07101   0.07101   0.07825
 Alpha virt. eigenvalues --    0.07825   0.08960   0.08960   0.09719   0.09719
 Alpha virt. eigenvalues --    0.09929   0.09929   0.10863   0.10863   0.11122
 Alpha virt. eigenvalues --    0.11122   0.11199   0.11199   0.12088   0.12088
 Alpha virt. eigenvalues --    0.12510   0.12510   0.12800   0.12800   0.12803
 Alpha virt. eigenvalues --    0.13012   0.13012   0.13509   0.13509   0.14438
 Alpha virt. eigenvalues --    0.14438   0.14785   0.14785   0.14801   0.14998
 Alpha virt. eigenvalues --    0.16120   0.16120   0.16933   0.16933   0.17016
 Alpha virt. eigenvalues --    0.17016   0.17618   0.17618   0.18326   0.18326
 Alpha virt. eigenvalues --    0.18893   0.18893   0.18983   0.18983   0.19604
 Alpha virt. eigenvalues --    0.19604   0.19679   0.19679   0.21147   0.21147
 Alpha virt. eigenvalues --    0.21662   0.21662   0.21816   0.21816   0.22527
 Alpha virt. eigenvalues --    0.23014   0.23041   0.23041   0.24088   0.24088
 Alpha virt. eigenvalues --    0.24365   0.24642   0.24642   0.24642   0.24764
 Alpha virt. eigenvalues --    0.24764   0.24870   0.24870   0.24992   0.24992
 Alpha virt. eigenvalues --    0.27012   0.27012   0.27291   0.27291   0.27617
 Alpha virt. eigenvalues --    0.27617   0.27988   0.27988   0.28183   0.28183
 Alpha virt. eigenvalues --    0.28541   0.28541   0.29870   0.29870   0.30306
 Alpha virt. eigenvalues --    0.31025   0.31025   0.31624   0.31624   0.31975
 Alpha virt. eigenvalues --    0.31975   0.33851   0.33851   0.34600   0.34600
 Alpha virt. eigenvalues --    0.35122   0.35122   0.35144   0.35144   0.35412
 Alpha virt. eigenvalues --    0.35914   0.35914   0.36005   0.36005   0.36727
 Alpha virt. eigenvalues --    0.36727   0.38079   0.38079   0.39047   0.39047
 Alpha virt. eigenvalues --    0.39429   0.39429   0.41104   0.41104   0.42698
 Alpha virt. eigenvalues --    0.42698   0.43144   0.43516   0.43516   0.45409
 Alpha virt. eigenvalues --    0.46375   0.46375   0.46378   0.46378   0.46629
 Alpha virt. eigenvalues --    0.46679   0.46679   0.46877   0.46877   0.47122
 Alpha virt. eigenvalues --    0.48561   0.48561   0.49699   0.49699   0.49916
 Alpha virt. eigenvalues --    0.49916   0.50496   0.50496   0.52232   0.52232
 Alpha virt. eigenvalues --    0.52443   0.52443   0.52505   0.52968   0.52968
 Alpha virt. eigenvalues --    0.53194   0.53194   0.53412   0.53412   0.53702
 Alpha virt. eigenvalues --    0.53744   0.53744   0.56004   0.56920   0.56920
 Alpha virt. eigenvalues --    0.57151   0.57151   0.57512   0.57512   0.61014
 Alpha virt. eigenvalues --    0.62421   0.62421   0.62949   0.62949   0.63431
 Alpha virt. eigenvalues --    0.63431   0.63715   0.63715   0.63939   0.63939
 Alpha virt. eigenvalues --    0.64091   0.64091   0.65530   0.65530   0.68135
 Alpha virt. eigenvalues --    0.68135   0.68442   0.68442   0.69930   0.69930
 Alpha virt. eigenvalues --    0.70100   0.70445   0.70445   0.71163   0.72101
 Alpha virt. eigenvalues --    0.72101   0.72417   0.72417   0.73658   0.73658
 Alpha virt. eigenvalues --    0.74090   0.74090   0.74194   0.74421   0.74421
 Alpha virt. eigenvalues --    0.75326   0.75326   0.76353   0.76353   0.77121
 Alpha virt. eigenvalues --    0.77121   0.77313   0.77313   0.77432   0.79901
 Alpha virt. eigenvalues --    0.79901   0.80192   0.81280   0.81280   0.81360
 Alpha virt. eigenvalues --    0.81360   0.81769   0.81769   0.82853   0.82853
 Alpha virt. eigenvalues --    0.84807   0.84807   0.84844   0.84844   0.84964
 Alpha virt. eigenvalues --    0.84964   0.85092   0.85092   0.86081   0.86081
 Alpha virt. eigenvalues --    0.88460   0.88460   0.88580   0.88580   0.88893
 Alpha virt. eigenvalues --    0.89737   0.89737   0.92490   0.92490   0.93306
 Alpha virt. eigenvalues --    0.93306   0.95224   0.95224   0.95502   0.95502
 Alpha virt. eigenvalues --    0.96720   0.96720   0.98448   0.98448   0.99047
 Alpha virt. eigenvalues --    0.99047   0.99680   0.99680   1.00260   1.00260
 Alpha virt. eigenvalues --    1.01312   1.01764   1.02617   1.02617   1.06380
 Alpha virt. eigenvalues --    1.06380   1.06932   1.06932   1.06979   1.06979
 Alpha virt. eigenvalues --    1.08102   1.08102   1.11126   1.11126   1.11788
 Alpha virt. eigenvalues --    1.11788   1.12954   1.12954   1.13116   1.13116
 Alpha virt. eigenvalues --    1.14744   1.14744   1.16092   1.16092   1.18614
 Alpha virt. eigenvalues --    1.18614   1.18840   1.18840   1.21252   1.21252
 Alpha virt. eigenvalues --    1.22100   1.22100   1.24669   1.25760   1.27398
 Alpha virt. eigenvalues --    1.27398   1.28845   1.28845   1.28848   1.28848
 Alpha virt. eigenvalues --    1.29552   1.30023   1.30827   1.30827   1.31267
 Alpha virt. eigenvalues --    1.33209   1.33209   1.39469   1.39646   1.39646
 Alpha virt. eigenvalues --    1.42996   1.42996   1.43812   1.43812   1.46744
 Alpha virt. eigenvalues --    1.46744   1.50245   1.50245   1.50374   1.50374
 Alpha virt. eigenvalues --    1.52085   1.52085   1.52747   1.52747   1.54163
 Alpha virt. eigenvalues --    1.54163   1.57408   1.57408   1.58503   1.58503
 Alpha virt. eigenvalues --    1.61127   1.61127   1.64776   1.64776   1.65813
 Alpha virt. eigenvalues --    1.65813   1.68772   1.68772   1.69982   1.69982
 Alpha virt. eigenvalues --    1.71204   1.71204   1.71394   1.73047   1.73047
 Alpha virt. eigenvalues --    1.75174   1.75174   1.76368   1.82351   1.82351
 Alpha virt. eigenvalues --    1.83414   1.83414   1.83645   1.91299   1.92273
 Alpha virt. eigenvalues --    1.92647   1.92647   1.94400   1.94400   1.95989
 Alpha virt. eigenvalues --    1.95989   1.97900   1.97900   1.98591   1.98591
 Alpha virt. eigenvalues --    1.99545   1.99545   2.00937   2.00937   2.08878
 Alpha virt. eigenvalues --    2.08878   2.09379   2.09379   2.12348   2.12348
 Alpha virt. eigenvalues --    2.12565   2.12565   2.17856   2.19394   2.19394
 Alpha virt. eigenvalues --    2.21993   2.21993   2.22639   2.22639   2.23695
 Alpha virt. eigenvalues --    2.23695   2.25063   2.25063   2.26652   2.27578
 Alpha virt. eigenvalues --    2.27578   2.30143   2.30143   2.34414   2.34414
 Alpha virt. eigenvalues --    2.35097   2.35430   2.35430   2.41554   2.41554
 Alpha virt. eigenvalues --    2.42125   2.42125   2.43633   2.43633   2.44299
 Alpha virt. eigenvalues --    2.44299   2.45927   2.45927   2.47293   2.47293
 Alpha virt. eigenvalues --    2.48667   2.48667   2.50232   2.50232   2.50459
 Alpha virt. eigenvalues --    2.50459   2.51694   2.51694   2.52308   2.52540
 Alpha virt. eigenvalues --    2.52540   2.52765   2.52765   2.58480   2.60449
 Alpha virt. eigenvalues --    2.60754   2.60754   2.65196   2.68543   2.68543
 Alpha virt. eigenvalues --    2.68714   2.68714   2.68805   2.68805   2.70881
 Alpha virt. eigenvalues --    2.73133   2.73133   2.75742   2.75742   2.75765
 Alpha virt. eigenvalues --    2.75765   2.76906   2.76906   2.86161   2.86161
 Alpha virt. eigenvalues --    2.86271   2.86271   2.89167   2.89167   2.92935
 Alpha virt. eigenvalues --    2.92935   2.93073   2.93073   2.95325   2.95325
 Alpha virt. eigenvalues --    2.97485   2.97485   3.04997   3.10214   3.10750
 Alpha virt. eigenvalues --    3.10750   3.14790   3.14790   3.18311   3.18311
 Alpha virt. eigenvalues --    3.20942   3.20942   3.23768   3.23768   3.24222
 Alpha virt. eigenvalues --    3.24222   3.30590   3.30590   3.30638   3.30638
 Alpha virt. eigenvalues --    3.32045   3.37708   3.37708   3.43447   3.45511
 Alpha virt. eigenvalues --    3.45511   3.51180   3.51180   3.58422   3.58422
 Alpha virt. eigenvalues --    3.65709   3.70762   3.70762   3.73144   3.73144
 Alpha virt. eigenvalues --    3.86599   3.86599   3.86826   3.86826   3.91985
 Alpha virt. eigenvalues --    3.91985   3.97217   3.97217   3.98109   3.98109
 Alpha virt. eigenvalues --    4.09951   4.09951   4.11333   4.11333   4.24592
 Alpha virt. eigenvalues --    4.28004   4.28004   4.43599   4.43599   4.44144
 Alpha virt. eigenvalues --    4.44144   4.49553   4.49553   4.51990   4.51990
 Alpha virt. eigenvalues --    4.55466   4.55466   4.56700   4.70273   4.70273
 Alpha virt. eigenvalues --    4.75564   4.75564   4.83315   4.89837   4.89837
 Alpha virt. eigenvalues --    5.02142   5.02142   5.16161   5.16161   5.22035
 Alpha virt. eigenvalues --    5.22035   5.27935   5.29432   5.29432   5.41511
 Alpha virt. eigenvalues --    5.41511   5.49499   5.49499   5.52797   5.52797
 Alpha virt. eigenvalues --    5.63794   5.63794   5.81022   5.81022   5.91720
 Alpha virt. eigenvalues --    5.91720   6.00473   6.00473   6.06119   6.26221
 Alpha virt. eigenvalues --   20.82232  22.28243  22.28243  22.36499  22.36499
 Alpha virt. eigenvalues --   22.42434  22.42434  22.45653  22.45653  22.67972
 Alpha virt. eigenvalues --   22.67972  22.69839  22.69839  22.70339  22.70339
 Alpha virt. eigenvalues --   22.71579  22.71579  22.82197
 Electronic spatial extent (au):  <R**2>=           5476.8014
 Charge=              0.0000 electrons
 Dipole moment (field-independent basis, Debye):
    X=             -0.0000    Y=              0.0000    Z=             -0.0000  Tot=              0.0000
 Quadrupole moment (field-independent basis, Debye-Ang):
   XX=            -97.3542   YY=            -97.3542   ZZ=            -98.7458
   XY=             -0.0000   XZ=              0.0000   YZ=             -0.0000
 Traceless Quadrupole moment (field-independent basis, Debye-Ang):
   XX=              0.4639   YY=              0.4639   ZZ=             -0.9277
   XY=             -0.0000   XZ=              0.0000   YZ=             -0.0000
 Octapole moment (field-independent basis, Debye-Ang**2):
  XXX=              0.0000  YYY=              0.0000  ZZZ=             -0.0000  XYY=              0.0000
  XXY=             -0.0000  XXZ=             -0.0000  XZZ=              0.0000  YZZ=              0.0000
  YYZ=              0.0000  XYZ=              0.0000
 Hexadecapole moment (field-independent basis, Debye-Ang**3):
 XXXX=          -4146.3249 YYYY=          -4146.3249 ZZZZ=           -110.8235 XXXY=             -0.0000
 XXXZ=              0.0000 YYYX=              0.0000 YYYZ=             -0.0000 ZZZX=             -0.0000
 ZZZY=              0.0000 XXYY=          -1382.1083 XXZZ=           -716.3695 YYZZ=           -716.3695
 XXYZ=             -0.0000 YYXZ=              0.0000 ZZXY=             -0.0000
 N-N= 8.029125944400D+02 E-N=-3.194743612190D+03  KE= 6.823366229029D+02
 Symmetry A1   KE= 3.353476665910D+02
 Symmetry A2   KE= 9.375999475764D+00
 Symmetry B1   KE= 3.261229903187D+02
 Symmetry B2   KE= 1.148996651762D+01
  Exact polarizability: 391.995  -0.000 391.995   0.000   0.000  97.693
 Approx polarizability: 606.013  -0.000 606.013   0.000  -0.000 113.177
 No NMR shielding tensors so no spin-rotation constants.
 Leave Link  601 at Sun Nov 24 00:34:25 2019, MaxMem= 26843545600 cpu:              42.3 elap:               1.3
 (Enter /sob/g16/l106.exe)
 NDeriv=      3 NFrqRd=  1 NDerD0=      0 MskFDP=      11 MskDFD=      31 MskDF0=       0
 At 1st pt F.D. properties on file   721 Mask=      11 NFrqRd=     1 NDeriv=     1 ND12= 1 LenFil=      30:
 Frequencies=    0.000000
 Property number 1 -- Alpha(-w,w) frequency  1    0.000000:
                 1             2             3 
      1   0.391995D+03  0.000000D+00  0.000000D+00
      2   0.000000D+00  0.391995D+03  0.000000D+00
      3   0.000000D+00  0.000000D+00  0.976926D+02
 Property number 5 -- Beta(-w,w,0) frequency  1    0.000000:
                 1 
      1   0.000000D+00
      2   0.281660D-02
      3   0.000000D+00
      4   0.000000D+00
      5   0.000000D+00
      6   0.000000D+00
      7   0.281660D-02
      8   0.000000D+00
      9  -0.245186D-01
     10   0.000000D+00
     11   0.000000D+00
     12   0.516371D-02
     13   0.000000D+00
     14   0.000000D+00
     15   0.000000D+00
     16   0.000000D+00
     17   0.516371D-02
     18   0.000000D+00
 At 1st pt F.D. properties file   722 does not exist.
 D2Numr ... symmetry will be used.
 Leave Link  106 at Sun Nov 24 00:34:25 2019, MaxMem= 26843545600 cpu:               3.4 elap:               0.1
 (Enter /sob/g16/l301.exe)
 Basis read from rwf:  (5D, 7F)
 No pseudopotential information found on rwf file.
 The following finite field(s) will be applied:
 An electric field of              0.0003  0.0000  0.0000
   648 basis functions,  2142 primitive gaussians,   702 cartesian basis functions
    54 alpha electrons       54 beta electrons
       nuclear repulsion energy       802.9193552641 Hartrees.
 IExCor= 4639 DFT=T Ex+Corr=wB97XD ExCW=0 ScaHFX=  1.000000
 ScaDFX=  1.000000  1.000000  1.000000  1.000000 ScalE2=  1.000000  1.000000
 IRadAn=      5 IRanWt=     -1 IRanGd=            0 ICorTp=0 IEmpDi=121
 HFx  wShort=  0.000000 wLong=  0.200000 cFull=  0.222036 cShort=  0.000000 cLong=  0.777964
 DFx  wShort=  0.000000 wLong=  0.200000 cFull=  0.000000 cShort=  0.000000 cLong=  1.000000
 NAtoms=   18 NActive=   18 NUniq=   18 SFac= 1.00D+00 NAtFMM=   60 NAOKFM=F Big=F
 Integral buffers will be    131072 words long.
 Raffenetti 2 integral format.
 Two-electron integral symmetry is turned off.
 R6Disp:  Grimme-D2 Dispersion energy=       -0.0067608241 Hartrees.
 Nuclear repulsion after empirical dispersion term =      802.9125944400 Hartrees.
 No density basis found on file   724.
 Leave Link  301 at Sun Nov 24 00:34:25 2019, MaxMem= 26843545600 cpu:               1.5 elap:               0.1
 (Enter /sob/g16/l302.exe)
 NPDir=0 NMtPBC=     1 NCelOv=     1 NCel=       1 NClECP=     1 NCelD=      1
         NCelK=      1 NCelE2=     1 NClLst=     1 CellRange=     0.0.
 One-electron integrals computed using PRISM.
 GSVD:  received Info=                   1 from GESDD.
 NBasis=   648 RedAO= T EigKep=  1.04D-06  NBF=   648
 NBsUse=   632 1.00D-06 EigRej=  8.47D-07 NBFU=   632
 Precomputing XC quadrature grid using
 IXCGrd= 4 IRadAn=           5 IRanWt=          -1 IRanGd=           0 AccXCQ= 0.00D+00.
 Generated NRdTot=       0 NPtTot=           0 NUsed=           0 NTot=          32
 NSgBfM=   689   689   689   689   689 MxSgAt=    18 MxSgA2=    18.
 Leave Link  302 at Sun Nov 24 00:34:26 2019, MaxMem= 26843545600 cpu:              41.5 elap:               1.2
 (Enter /sob/g16/l303.exe)
 DipDrv:  MaxL=1.
 The nuclear repulsion energy is now       802.9125944400 hartrees.
 Leave Link  303 at Sun Nov 24 00:34:26 2019, MaxMem= 26843545600 cpu:               7.3 elap:               0.2
 (Enter /sob/g16/l401.exe)
 Initial guess from the checkpoint file:  "/sob2/gauscr/Gau-21046.chk"
 B after Tr=     0.000000    0.000000    0.000000
         Rot=    1.000000    0.000000    0.000000    0.000000 Ang=   0.00 deg.
 Guess basis will be translated and rotated to current coordinates.
 JPrj=2 DoOrth=T DoCkMO=T.
 Leave Link  401 at Sun Nov 24 00:34:27 2019, MaxMem= 26843545600 cpu:              23.8 elap:               0.7
 (Enter /sob/g16/l502.exe)
 Two-electron integral symmetry not used.
 Closed shell SCF:
 Using DIIS extrapolation, IDIIS=  1040.
 NGot= 26843545600 LenX= 26842530552 LenY= 26842037046
 Requested convergence on RMS density matrix=1.00D-08 within 128 cycles.
 Requested convergence on MAX density matrix=1.00D-06.
 Requested convergence on             energy=1.00D-06.
 No special actions if energy rises.
 Fock matrices will be formed incrementally for  20 cycles.

 Cycle   1  Pass 1  IDiag  1:
 FoFJK:  IHMeth= 1 ICntrl=       0 DoSepK=T KAlg= 0 I1Cent=           0 FoldK=F
 IRaf=         1 NMat=       1 IRICut=       1 DoRegI=T DoRafI=F ISym2E= 0 IDoP0=0 IntGTp=1.
 FoFCou: FMM=F IPFlag=           0 FMFlag=      100000 FMFlg1=           0
         NFxFlg=           0 DoJE=T BraDBF=F KetDBF=F FulRan=T
         wScrn=  0.000000 ICntrl=       500 IOpCl=  0 I1Cent=           0 NGrid=           0
         NMat0=    1 NMatS0=      1 NMatT0=    0 NMatD0=    1 NMtDS0=    0 NMtDT0=    0
 Symmetry not used in FoFCou.
 E= -685.253918914750    
 DIIS: error= 3.15D-04 at cycle   1 NSaved=   1.
 NSaved= 1 IEnMin= 1 EnMin= -685.253918914750     IErMin= 1 ErrMin= 3.15D-04
 ErrMax= 3.15D-04  0.00D+00 EMaxC= 1.00D-01 BMatC= 5.80D-06 BMatP= 5.80D-06
 IDIUse=3 WtCom= 9.97D-01 WtEn= 3.15D-03
 Coeff-Com:  0.100D+01
 Coeff-En:   0.100D+01
 Coeff:      0.100D+01
 Gap=     0.421 Goal=   None    Shift=    0.000
 RMSDP=6.69D-05 MaxDP=1.74D-03              OVMax= 3.77D-03

 Cycle   2  Pass 1  IDiag  1:
 RMSU=  6.69D-05    CP:  1.00D+00
 E= -685.253922385531     Delta-E=       -0.000003470782 Rises=F Damp=F
 DIIS: error= 2.75D-04 at cycle   2 NSaved=   2.
 NSaved= 2 IEnMin= 2 EnMin= -685.253922385531     IErMin= 2 ErrMin= 2.75D-04
 ErrMax= 2.75D-04  0.00D+00 EMaxC= 1.00D-01 BMatC= 1.24D-05 BMatP= 5.80D-06
 IDIUse=3 WtCom= 3.76D-01 WtEn= 6.24D-01
 Coeff-Com:  0.619D+00 0.381D+00
 Coeff-En:   0.443D+00 0.557D+00
 Coeff:      0.509D+00 0.491D+00
 Gap=     0.247 Goal=   None    Shift=    0.000
 RMSDP=4.45D-05 MaxDP=2.08D-03 DE=-3.47D-06 OVMax= 1.79D-03

 Cycle   3  Pass 1  IDiag  1:
 RMSU=  3.18D-05    CP:  1.00D+00  5.35D-01
 E= -685.253939518722     Delta-E=       -0.000017133190 Rises=F Damp=F
 DIIS: error= 6.23D-05 at cycle   3 NSaved=   3.
 NSaved= 3 IEnMin= 3 EnMin= -685.253939518722     IErMin= 3 ErrMin= 6.23D-05
 ErrMax= 6.23D-05  0.00D+00 EMaxC= 1.00D-01 BMatC= 9.97D-07 BMatP= 5.80D-06
 IDIUse=1 WtCom= 1.00D+00 WtEn= 0.00D+00
 Coeff-Com:  0.109D+00 0.210D+00 0.681D+00
 Coeff:      0.109D+00 0.210D+00 0.681D+00
 Gap=     0.247 Goal=   None    Shift=    0.000
 RMSDP=1.87D-05 MaxDP=9.31D-04 DE=-1.71D-05 OVMax= 3.48D-04

 Cycle   4  Pass 1  IDiag  1:
 RMSU=  1.61D-05    CP:  1.00D+00  6.13D-01  7.48D-01
 E= -685.253940619600     Delta-E=       -0.000001100879 Rises=F Damp=F
 DIIS: error= 1.23D-05 at cycle   4 NSaved=   4.
 NSaved= 4 IEnMin= 4 EnMin= -685.253940619600     IErMin= 4 ErrMin= 1.23D-05
 ErrMax= 1.23D-05  0.00D+00 EMaxC= 1.00D-01 BMatC= 5.01D-08 BMatP= 9.97D-07
 IDIUse=1 WtCom= 1.00D+00 WtEn= 0.00D+00
 Coeff-Com: -0.171D-01-0.109D-01 0.126D+00 0.902D+00
 Coeff:     -0.171D-01-0.109D-01 0.126D+00 0.902D+00
 Gap=     0.247 Goal=   None    Shift=    0.000
 RMSDP=1.04D-05 MaxDP=7.30D-04 DE=-1.10D-06 OVMax= 5.44D-05

 Cycle   5  Pass 1  IDiag  1:
 RMSU=  5.47D-06    CP:  1.00D+00  6.29D-01  6.96D-01  1.53D+00
 E= -685.253940685719     Delta-E=       -0.000000066119 Rises=F Damp=F
 DIIS: error= 3.25D-06 at cycle   5 NSaved=   5.
 NSaved= 5 IEnMin= 5 EnMin= -685.253940685719     IErMin= 5 ErrMin= 3.25D-06
 ErrMax= 3.25D-06  0.00D+00 EMaxC= 1.00D-01 BMatC= 2.80D-09 BMatP= 5.01D-08
 IDIUse=1 WtCom= 1.00D+00 WtEn= 0.00D+00
 Coeff-Com: -0.108D-01-0.185D-01-0.338D-01 0.146D+00 0.917D+00
 Coeff:     -0.108D-01-0.185D-01-0.338D-01 0.146D+00 0.917D+00
 Gap=     0.247 Goal=   None    Shift=    0.000
 RMSDP=3.07D-06 MaxDP=2.16D-04 DE=-6.61D-08 OVMax= 2.46D-05

 Cycle   6  Pass 1  IDiag  1:
 RMSU=  1.07D-06    CP:  1.00D+00  6.28D-01  6.99D-01  1.69D+00  1.26D+00
 E= -685.253940691798     Delta-E=       -0.000000006079 Rises=F Damp=F
 DIIS: error= 1.80D-06 at cycle   6 NSaved=   6.
 NSaved= 6 IEnMin= 6 EnMin= -685.253940691798     IErMin= 6 ErrMin= 1.80D-06
 ErrMax= 1.80D-06  0.00D+00 EMaxC= 1.00D-01 BMatC= 3.25D-10 BMatP= 2.80D-09
 IDIUse=1 WtCom= 1.00D+00 WtEn= 0.00D+00
 Coeff-Com: -0.833D-03-0.113D-02-0.144D-01-0.455D-01 0.192D+00 0.870D+00
 Coeff:     -0.833D-03-0.113D-02-0.144D-01-0.455D-01 0.192D+00 0.870D+00
 Gap=     0.247 Goal=   None    Shift=    0.000
 RMSDP=6.97D-07 MaxDP=4.12D-05 DE=-6.08D-09 OVMax= 1.53D-05

 Cycle   7  Pass 1  IDiag  1:
 RMSU=  2.66D-07    CP:  1.00D+00  6.31D-01  6.98D-01  1.72D+00  1.30D+00
                    CP:  1.09D+00
 E= -685.253940692518     Delta-E=       -0.000000000720 Rises=F Damp=F
 DIIS: error= 5.11D-07 at cycle   7 NSaved=   7.
 NSaved= 7 IEnMin= 7 EnMin= -685.253940692518     IErMin= 7 ErrMin= 5.11D-07
 ErrMax= 5.11D-07  0.00D+00 EMaxC= 1.00D-01 BMatC= 2.38D-11 BMatP= 3.25D-10
 IDIUse=1 WtCom= 1.00D+00 WtEn= 0.00D+00
 Coeff-Com:  0.237D-03 0.404D-03 0.261D-02-0.887D-02-0.368D-01 0.436D-01
 Coeff-Com:  0.999D+00
 Coeff:      0.237D-03 0.404D-03 0.261D-02-0.887D-02-0.368D-01 0.436D-01
 Coeff:      0.999D+00
 Gap=     0.247 Goal=   None    Shift=    0.000
 RMSDP=1.82D-07 MaxDP=7.84D-06 DE=-7.20D-10 OVMax= 6.08D-06

 Cycle   8  Pass 1  IDiag  1:
 RMSU=  1.38D-07    CP:  1.00D+00  6.31D-01  7.01D-01  1.73D+00  1.31D+00
                    CP:  1.11D+00  1.11D+00
 E= -685.253940692601     Delta-E=       -0.000000000083 Rises=F Damp=F
 DIIS: error= 2.82D-07 at cycle   8 NSaved=   8.
 NSaved= 8 IEnMin= 8 EnMin= -685.253940692601     IErMin= 8 ErrMin= 2.82D-07
 ErrMax= 2.82D-07  0.00D+00 EMaxC= 1.00D-01 BMatC= 1.02D-11 BMatP= 2.38D-11
 IDIUse=1 WtCom= 1.00D+00 WtEn= 0.00D+00
 Coeff-Com:  0.183D-03 0.291D-03 0.251D-02-0.155D-03-0.340D-01-0.618D-01
 Coeff-Com:  0.469D+00 0.624D+00
 Coeff:      0.183D-03 0.291D-03 0.251D-02-0.155D-03-0.340D-01-0.618D-01
 Coeff:      0.469D+00 0.624D+00
 Gap=     0.247 Goal=   None    Shift=    0.000
 RMSDP=6.49D-08 MaxDP=2.61D-06 DE=-8.30D-11 OVMax= 2.56D-06

 Cycle   9  Pass 1  IDiag  1:
 RMSU=  4.63D-08    CP:  1.00D+00  6.31D-01  7.01D-01  1.73D+00  1.31D+00
                    CP:  1.12D+00  1.19D+00  1.24D+00
 E= -685.253940692659     Delta-E=       -0.000000000058 Rises=F Damp=F
 DIIS: error= 1.80D-07 at cycle   9 NSaved=   9.
 NSaved= 9 IEnMin= 9 EnMin= -685.253940692659     IErMin= 9 ErrMin= 1.80D-07
 ErrMax= 1.80D-07  0.00D+00 EMaxC= 1.00D-01 BMatC= 4.15D-12 BMatP= 1.02D-11
 IDIUse=1 WtCom= 1.00D+00 WtEn= 0.00D+00
 Coeff-Com: -0.547D-04-0.992D-04-0.623D-03 0.676D-02 0.834D-02-0.775D-01
 Coeff-Com: -0.491D+00 0.408D+00 0.115D+01
 Coeff:     -0.547D-04-0.992D-04-0.623D-03 0.676D-02 0.834D-02-0.775D-01
 Coeff:     -0.491D+00 0.408D+00 0.115D+01
 Gap=     0.247 Goal=   None    Shift=    0.000
 RMSDP=9.48D-08 MaxDP=3.54D-06 DE=-5.78D-11 OVMax= 4.03D-06

 Cycle  10  Pass 1  IDiag  1:
 RMSU=  3.52D-08    CP:  1.00D+00  6.32D-01  7.02D-01  1.72D+00  1.30D+00
                    CP:  1.12D+00  1.31D+00  1.77D+00  1.32D+00
 E= -685.253940692686     Delta-E=       -0.000000000027 Rises=F Damp=F
 DIIS: error= 3.27D-08 at cycle  10 NSaved=  10.
 NSaved=10 IEnMin=10 EnMin= -685.253940692686     IErMin=10 ErrMin= 3.27D-08
 ErrMax= 3.27D-08  0.00D+00 EMaxC= 1.00D-01 BMatC= 1.30D-13 BMatP= 4.15D-12
 IDIUse=1 WtCom= 1.00D+00 WtEn= 0.00D+00
 Coeff-Com: -0.321D-05-0.205D-04-0.182D-03-0.777D-03 0.164D-02 0.212D-01
 Coeff-Com:  0.292D-01-0.159D+00-0.210D+00 0.132D+01
 Coeff:     -0.321D-05-0.205D-04-0.182D-03-0.777D-03 0.164D-02 0.212D-01
 Coeff:      0.292D-01-0.159D+00-0.210D+00 0.132D+01
 Gap=     0.247 Goal=   None    Shift=    0.000
 RMSDP=4.06D-08 MaxDP=1.14D-06 DE=-2.71D-11 OVMax= 1.06D-06

 Cycle  11  Pass 1  IDiag  1:
 RMSU=  2.20D-08    CP:  1.00D+00  6.32D-01  7.02D-01  1.73D+00  1.31D+00
                    CP:  1.13D+00  1.34D+00  1.89D+00  1.57D+00  1.69D+00
 E= -685.253940692686     Delta-E=        0.000000000000 Rises=F Damp=F
 DIIS: error= 3.79D-09 at cycle  11 NSaved=  11.
 NSaved=11 IEnMin=10 EnMin= -685.253940692686     IErMin=11 ErrMin= 3.79D-09
 ErrMax= 3.79D-09  0.00D+00 EMaxC= 1.00D-01 BMatC= 6.39D-15 BMatP= 1.30D-13
 IDIUse=1 WtCom= 1.00D+00 WtEn= 0.00D+00
 Coeff-Com:  0.271D-05-0.171D-05-0.241D-04-0.309D-03-0.314D-04 0.630D-02
 Coeff-Com:  0.183D-01-0.366D-01-0.656D-01 0.201D+00 0.877D+00
 Coeff:      0.271D-05-0.171D-05-0.241D-04-0.309D-03-0.314D-04 0.630D-02
 Coeff:      0.183D-01-0.366D-01-0.656D-01 0.201D+00 0.877D+00
 Gap=     0.247 Goal=   None    Shift=    0.000
 RMSDP=2.78D-08 MaxDP=8.59D-07 DE= 0.00D+00 OVMax= 5.31D-08

 Cycle  12  Pass 1  IDiag  1:
 RMSU=  5.26D-09    CP:  1.00D+00  6.32D-01  7.02D-01  1.73D+00  1.31D+00
                    CP:  1.13D+00  1.35D+00  1.91D+00  1.63D+00  2.07D+00
                    CP:  2.04D+00
 E= -685.253940692642     Delta-E=        0.000000000044 Rises=F Damp=F
 DIIS: error= 4.56D-09 at cycle  12 NSaved=  12.
 NSaved=12 IEnMin=10 EnMin= -685.253940692686     IErMin=11 ErrMin= 3.79D-09
 ErrMax= 4.56D-09  0.00D+00 EMaxC= 1.00D-01 BMatC= 6.90D-15 BMatP= 6.39D-15
 IDIUse=1 WtCom= 1.00D+00 WtEn= 0.00D+00
 Coeff-Com:  0.251D-05 0.138D-05 0.674D-05-0.927D-04-0.255D-03 0.128D-02
 Coeff-Com:  0.782D-02-0.183D-02-0.134D-01-0.533D-01 0.576D+00 0.484D+00
 Coeff:      0.251D-05 0.138D-05 0.674D-05-0.927D-04-0.255D-03 0.128D-02
 Coeff:      0.782D-02-0.183D-02-0.134D-01-0.533D-01 0.576D+00 0.484D+00
 Gap=     0.247 Goal=   None    Shift=    0.000
 RMSDP=2.41D-08 MaxDP=7.30D-07 DE= 4.43D-11 OVMax= 1.68D-08

 Cycle  13  Pass 1  IDiag  1:
 RMSU=  2.60D-09    CP:  1.00D+00  6.32D-01  7.03D-01  1.73D+00  1.31D+00
                    CP:  1.13D+00  1.35D+00  1.92D+00  1.68D+00  2.37D+00
                    CP:  2.95D+00  1.90D+00
 E= -685.253940692665     Delta-E=       -0.000000000023 Rises=F Damp=F
 DIIS: error= 5.67D-09 at cycle  13 NSaved=  13.
 NSaved=13 IEnMin=10 EnMin= -685.253940692686     IErMin=11 ErrMin= 3.79D-09
 ErrMax= 5.67D-09  0.00D+00 EMaxC= 1.00D-01 BMatC= 2.41D-15 BMatP= 6.39D-15
 IDIUse=1 WtCom= 1.00D+00 WtEn= 0.00D+00
 Coeff-Com:  0.237D-05 0.128D-05 0.626D-05-0.865D-04-0.240D-03 0.119D-02
 Coeff-Com:  0.731D-02-0.164D-02-0.125D-01-0.506D-01 0.540D+00 0.455D+00
 Coeff-Com:  0.615D-01
 Coeff:      0.237D-05 0.128D-05 0.626D-05-0.865D-04-0.240D-03 0.119D-02
 Coeff:      0.731D-02-0.164D-02-0.125D-01-0.506D-01 0.540D+00 0.455D+00
 Coeff:      0.615D-01
 Gap=     0.247 Goal=   None    Shift=    0.000
 RMSDP=3.27D-09 MaxDP=9.66D-08 DE=-2.30D-11 OVMax= 5.48D-10

 SCF Done:  E(RwB97XD) =  -685.253940693     A.U. after   13 cycles
            NFock= 13  Conv=0.33D-08     -V/T= 2.0043
 KE= 6.823366968181D+02 PE=-3.194743629296D+03 EE= 1.024240397346D+03
 Leave Link  502 at Sun Nov 24 01:06:41 2019, MaxMem= 26843545600 cpu:           69609.7 elap:            1933.9
 (Enter /sob/g16/l801.exe)
 DoSCS=F DFT=T ScalE2(SS,OS)=  1.000000  1.000000
 Range of M.O.s used for correlation:     1   632
 NBasis=   648 NAE=    54 NBE=    54 NFC=     0 NFV=     0
 NROrb=    632 NOA=    54 NOB=    54 NVA=   578 NVB=   578

 **** Warning!!: The largest alpha MO coefficient is  0.16867899D+03

 Leave Link  801 at Sun Nov 24 01:06:41 2019, MaxMem= 26843545600 cpu:               0.8 elap:               0.0
 (Enter /sob/g16/l1002.exe)
 Minotr:  Closed shell wavefunction.
          Direct CPHF calculation.
          Differentiating once with respect to electric field.
                with respect to dipole field.
          Electric field/nuclear overlap derivatives assumed to be zero.
          Requested convergence is 1.0D-08 RMS, and 1.0D-07 maximum.
          Secondary convergence is 1.0D-12 RMS, and 1.0D-12 maximum.
          NewPWx=F KeepS1=T KeepF1=T KeepIn=T MapXYZ=F SortEE=F KeepMc=T.
         8263 words used for storage of precomputed grid.
 Two-electron integral symmetry not used.
          MDV=   26843545600 using IRadAn=       4.
          Solving linear equations simultaneously, MaxMat=     360.
          Doing perturbations at frequencies    0.000000
          There are     3 degrees of freedom in the 1st order CPHF.  IDoFFX=0 NUNeed=     3.
      3 vectors produced by pass  0 Test12= 2.08D-12 3.33D-08 XBig12= 1.07D+03 1.10D+01.
 AX will form     3 AO Fock derivatives at one time.
 FoFJK:  IHMeth= 1 ICntrl=       0 DoSepK=T KAlg= 0 I1Cent=           0 FoldK=F
 IRaf=         1 NMat=       6 IRICut=       1 DoRegI=T DoRafI=F ISym2E= 0 IDoP0=0 IntGTp=1.
 FoFCou: FMM=F IPFlag=           0 FMFlag=      100000 FMFlg1=           0
         NFxFlg=           0 DoJE=T BraDBF=F KetDBF=F FulRan=T
         wScrn=  0.000000 ICntrl=       500 IOpCl=  0 I1Cent=           0 NGrid=           0
         NMat0=    3 NMatS0=      3 NMatT0=    0 NMatD0=    3 NMtDS0=    0 NMtDT0=    0
 Symmetry not used in FoFCou.
      3 vectors produced by pass  1 Test12= 2.08D-12 3.33D-08 XBig12= 1.93D+02 1.09D+00.
      3 vectors produced by pass  2 Test12= 2.08D-12 3.33D-08 XBig12= 2.69D+01 5.94D-01.
      3 vectors produced by pass  3 Test12= 2.08D-12 3.33D-08 XBig12= 2.07D+00 1.31D-01.
      3 vectors produced by pass  4 Test12= 2.08D-12 3.33D-08 XBig12= 2.59D-01 1.11D-01.
      3 vectors produced by pass  5 Test12= 2.08D-12 3.33D-08 XBig12= 4.72D-02 5.36D-02.
      3 vectors produced by pass  6 Test12= 2.08D-12 3.33D-08 XBig12= 4.85D-03 1.88D-02.
      3 vectors produced by pass  7 Test12= 2.08D-12 3.33D-08 XBig12= 3.94D-03 1.44D-02.
      3 vectors produced by pass  8 Test12= 2.08D-12 3.33D-08 XBig12= 1.05D-04 1.08D-03.
      3 vectors produced by pass  9 Test12= 2.08D-12 3.33D-08 XBig12= 7.61D-06 3.92D-04.
      3 vectors produced by pass 10 Test12= 2.08D-12 3.33D-08 XBig12= 2.86D-06 2.32D-04.
      2 vectors produced by pass 11 Test12= 2.08D-12 3.33D-08 XBig12= 9.40D-07 1.32D-04.
      2 vectors produced by pass 12 Test12= 2.08D-12 3.33D-08 XBig12= 3.46D-07 7.73D-05.
      2 vectors produced by pass 13 Test12= 2.08D-12 3.33D-08 XBig12= 2.44D-08 2.51D-05.
      2 vectors produced by pass 14 Test12= 2.08D-12 3.33D-08 XBig12= 1.31D-08 1.36D-05.
      2 vectors produced by pass 15 Test12= 2.08D-12 3.33D-08 XBig12= 2.28D-09 7.15D-06.
      2 vectors produced by pass 16 Test12= 2.08D-12 3.33D-08 XBig12= 4.25D-10 4.19D-06.
      2 vectors produced by pass 17 Test12= 2.08D-12 3.33D-08 XBig12= 5.18D-11 1.76D-06.
      2 vectors produced by pass 18 Test12= 2.08D-12 3.33D-08 XBig12= 7.99D-12 3.12D-07.
      2 vectors produced by pass 19 Test12= 2.08D-12 3.33D-08 XBig12= 8.32D-13 1.63D-07.
      1 vectors produced by pass 20 Test12= 2.08D-12 3.33D-08 XBig12= 8.01D-14 4.47D-08.
 InvSVY:  IOpt=1 It=  1 EMax= 1.42D-14
 Solved reduced A of dimension    52 with     3 vectors.
 FullF1:  Do perturbations      1 to       3.
 SCF Polarizability for W=    0.000000:
                1             2             3 
      1  0.392009D+03
      2  0.000000D+00  0.392000D+03
      3  0.000000D+00  0.000000D+00  0.976935D+02
 Isotropic polarizability for W=    0.000000      293.90 Bohr**3.
 SCF Static Hyperpolarizability:
 K=  1 block:
                1 
      1  0.797174D+02
 K=  2 block:
                1             2 
      1  0.193642D-02
      2  0.265737D+02 -0.243453D-01
 K=  3 block:
                1             2             3 
      1  0.000000D+00
      2  0.000000D+00  0.000000D+00
      3  0.437662D+01  0.454147D-02  0.000000D+00
 End of Minotr F.D. properties on file   721 Mask=      11 NFrqRd=     1 NDeriv=     1 ND12= 1 LenFil=      30:
 Frequencies=    0.000000
 Property number 1 -- Alpha(-w,w) frequency  1    0.000000:
                 1             2             3 
      1   0.392009D+03  0.000000D+00  0.000000D+00
      2   0.000000D+00  0.392000D+03  0.000000D+00
      3   0.000000D+00  0.000000D+00  0.976935D+02
 Property number 5 -- Beta(-w,w,0) frequency  1    0.000000:
                 1 
      1   0.797174D+02
      2   0.193642D-02
      3   0.265737D+02
      4   0.000000D+00
      5   0.000000D+00
      6   0.437662D+01
      7   0.193642D-02
      8   0.265737D+02
      9  -0.243453D-01
     10   0.000000D+00
     11   0.000000D+00
     12   0.454147D-02
     13   0.000000D+00
     14   0.000000D+00
     15   0.000000D+00
     16   0.437662D+01
     17   0.454147D-02
     18   0.000000D+00
 End of Minotr F.D. properties file   722 does not exist.
 End of Minotr F.D. properties file   788 does not exist.
 Leave Link 1002 at Sun Nov 24 02:17:14 2019, MaxMem= 26843545600 cpu:          152369.8 elap:            4232.9
 (Enter /sob/g16/l601.exe)
 Copying SCF densities to generalized density rwf, IOpCl= 0 IROHF=0.

 **********************************************************************

            Population analysis using the SCF density.

 **********************************************************************

 Alpha  occ. eigenvalues --  -10.35318 -10.35298 -10.35276 -10.35261 -10.35245
 Alpha  occ. eigenvalues --  -10.35229 -10.35215 -10.35192 -10.35160 -10.35096
 Alpha  occ. eigenvalues --  -10.35063 -10.35040 -10.35024 -10.35009 -10.34994
 Alpha  occ. eigenvalues --  -10.34977 -10.34956 -10.34933  -0.97250  -0.96494
 Alpha  occ. eigenvalues --   -0.96492  -0.94297  -0.94297  -0.90849  -0.90849
 Alpha  occ. eigenvalues --   -0.86613  -0.86575  -0.80537  -0.80506  -0.75537
 Alpha  occ. eigenvalues --   -0.75537  -0.70830  -0.70830  -0.67383  -0.67381
 Alpha  occ. eigenvalues --   -0.66088  -0.52053  -0.51942  -0.50777  -0.50774
 Alpha  occ. eigenvalues --   -0.50728  -0.50726  -0.47009  -0.47009  -0.46911
 Alpha  occ. eigenvalues --   -0.46911  -0.40543  -0.40543  -0.40262  -0.40262
 Alpha  occ. eigenvalues --   -0.31508  -0.31458  -0.31143  -0.31089
 Alpha virt. eigenvalues --   -0.06340  -0.06287  -0.06277  -0.06218   0.03426
 Alpha virt. eigenvalues --    0.03440   0.04151   0.04151   0.04551   0.04551
 Alpha virt. eigenvalues --    0.05118   0.05513   0.05897   0.05897   0.06018
 Alpha virt. eigenvalues --    0.06018   0.07058   0.07094   0.07106   0.07816
 Alpha virt. eigenvalues --    0.07835   0.08959   0.08959   0.09715   0.09721
 Alpha virt. eigenvalues --    0.09925   0.09943   0.10852   0.10852   0.11121
 Alpha virt. eigenvalues --    0.11121   0.11198   0.11198   0.12087   0.12087
 Alpha virt. eigenvalues --    0.12511   0.12511   0.12787   0.12805   0.12805
 Alpha virt. eigenvalues --    0.13014   0.13030   0.13506   0.13509   0.14437
 Alpha virt. eigenvalues --    0.14438   0.14786   0.14786   0.14797   0.14999
 Alpha virt. eigenvalues --    0.16118   0.16121   0.16927   0.16927   0.17005
 Alpha virt. eigenvalues --    0.17024   0.17602   0.17638   0.18323   0.18323
 Alpha virt. eigenvalues --    0.18895   0.18895   0.18982   0.18984   0.19598
 Alpha virt. eigenvalues --    0.19614   0.19676   0.19687   0.21130   0.21174
 Alpha virt. eigenvalues --    0.21661   0.21662   0.21814   0.21815   0.22542
 Alpha virt. eigenvalues --    0.23002   0.23049   0.23049   0.24082   0.24094
 Alpha virt. eigenvalues --    0.24352   0.24602   0.24656   0.24656   0.24736
 Alpha virt. eigenvalues --    0.24744   0.24894   0.24922   0.24995   0.24995
 Alpha virt. eigenvalues --    0.27010   0.27011   0.27299   0.27310   0.27617
 Alpha virt. eigenvalues --    0.27617   0.27971   0.27971   0.28184   0.28184
 Alpha virt. eigenvalues --    0.28556   0.28556   0.29870   0.29870   0.30303
 Alpha virt. eigenvalues --    0.30978   0.31070   0.31608   0.31642   0.31978
 Alpha virt. eigenvalues --    0.31978   0.33844   0.33844   0.34600   0.34600
 Alpha virt. eigenvalues --    0.35050   0.35087   0.35177   0.35225   0.35412
 Alpha virt. eigenvalues --    0.35913   0.35916   0.35989   0.36021   0.36729
 Alpha virt. eigenvalues --    0.36729   0.38078   0.38082   0.39045   0.39045
 Alpha virt. eigenvalues --    0.39431   0.39431   0.41104   0.41104   0.42693
 Alpha virt. eigenvalues --    0.42709   0.43146   0.43513   0.43519   0.45405
 Alpha virt. eigenvalues --    0.46299   0.46377   0.46380   0.46439   0.46629
 Alpha virt. eigenvalues --    0.46679   0.46679   0.46882   0.46883   0.47121
 Alpha virt. eigenvalues --    0.48561   0.48561   0.49667   0.49668   0.49944
 Alpha virt. eigenvalues --    0.49945   0.50495   0.50496   0.52232   0.52232
 Alpha virt. eigenvalues --    0.52434   0.52445   0.52505   0.52892   0.53023
 Alpha virt. eigenvalues --    0.53204   0.53210   0.53409   0.53415   0.53713
 Alpha virt. eigenvalues --    0.53742   0.53743   0.55997   0.56920   0.56920
 Alpha virt. eigenvalues --    0.57153   0.57153   0.57510   0.57512   0.61014
 Alpha virt. eigenvalues --    0.62421   0.62421   0.62938   0.62959   0.63430
 Alpha virt. eigenvalues --    0.63431   0.63714   0.63715   0.63938   0.63938
 Alpha virt. eigenvalues --    0.64091   0.64091   0.65530   0.65530   0.68086
 Alpha virt. eigenvalues --    0.68185   0.68443   0.68443   0.69929   0.69931
 Alpha virt. eigenvalues --    0.70090   0.70444   0.70452   0.71160   0.72089
 Alpha virt. eigenvalues --    0.72113   0.72416   0.72418   0.73659   0.73659
 Alpha virt. eigenvalues --    0.74078   0.74102   0.74195   0.74421   0.74424
 Alpha virt. eigenvalues --    0.75326   0.75326   0.76353   0.76354   0.77122
 Alpha virt. eigenvalues --    0.77122   0.77283   0.77346   0.77432   0.79893
 Alpha virt. eigenvalues --    0.79908   0.80193   0.81280   0.81280   0.81355
 Alpha virt. eigenvalues --    0.81359   0.81773   0.81773   0.82850   0.82856
 Alpha virt. eigenvalues --    0.84788   0.84789   0.84860   0.84862   0.84956
 Alpha virt. eigenvalues --    0.84972   0.85089   0.85089   0.86085   0.86085
[...]
 Alpha virt. eigenvalues --    2.97485   2.97485   3.04997   3.10217   3.10750
 Alpha virt. eigenvalues --    3.10750   3.14791   3.14791   3.18311   3.18311
 Alpha virt. eigenvalues --    3.20942   3.20942   3.23768   3.23768   3.24222
 Alpha virt. eigenvalues --    3.24222   3.30591   3.30592   3.30631   3.30632
 Alpha virt. eigenvalues --    3.32045   3.37708   3.37709   3.43447   3.45511
 Alpha virt. eigenvalues --    3.45511   3.51180   3.51180   3.58423   3.58423
 Alpha virt. eigenvalues --    3.65710   3.70762   3.70762   3.73144   3.73144
 Alpha virt. eigenvalues --    3.86599   3.86599   3.86826   3.86826   3.91985
 Alpha virt. eigenvalues --    3.91985   3.97217   3.97217   3.98109   3.98109
 Alpha virt. eigenvalues --    4.09950   4.09951   4.11332   4.11332   4.24592
 Alpha virt. eigenvalues --    4.28003   4.28003   4.43599   4.43599   4.44144
 Alpha virt. eigenvalues --    4.44144   4.49553   4.49553   4.51990   4.51990
 Alpha virt. eigenvalues --    4.55466   4.55466   4.56699   4.70274   4.70274
 Alpha virt. eigenvalues --    4.75564   4.75564   4.83314   4.89837   4.89837
 Alpha virt. eigenvalues --    5.02142   5.02142   5.16159   5.16159   5.22035
 Alpha virt. eigenvalues --    5.22035   5.27934   5.29431   5.29431   5.41511
 Alpha virt. eigenvalues --    5.41511   5.49498   5.49499   5.52799   5.52799
 Alpha virt. eigenvalues --    5.63795   5.63796   5.81022   5.81022   5.91720
 Alpha virt. eigenvalues --    5.91721   6.00462   6.00462   6.06119   6.26228
 Alpha virt. eigenvalues --   20.82232  22.28243  22.28244  22.36499  22.36499
 Alpha virt. eigenvalues --   22.42433  22.42433  22.45653  22.45654  22.67972
 Alpha virt. eigenvalues --   22.67972  22.69839  22.69839  22.70340  22.70340
 Alpha virt. eigenvalues --   22.71579  22.71579  22.82197
 Electronic spatial extent (au):  <R**2>=           5476.8015
 Charge=             -0.0000 electrons
 Dipole moment (field-independent basis, Debye):
    X=              0.0000    Y=             -0.0000    Z=             -0.0828  Tot=              0.0828
 Quadrupole moment (field-independent basis, Debye-Ang):
   XX=            -97.3542   YY=            -97.3542   ZZ=            -98.7460
   XY=             -0.0000   XZ=             -0.0000   YZ=              0.0000
 Traceless Quadrupole moment (field-independent basis, Debye-Ang):
   XX=              0.4640   YY=              0.4639   ZZ=             -0.9279
   XY=             -0.0000   XZ=             -0.0000   YZ=              0.0000
 Octapole moment (field-independent basis, Debye-Ang**2):
  XXX=              0.0000  YYY=              0.0000  ZZZ=             -0.1785  XYY=             -0.0000
  XXY=             -0.0001  XXZ=             -0.6476  XZZ=             -0.0000  YZZ=             -0.0000
  YYZ=             -0.6476  XYZ=             -0.0000
 Hexadecapole moment (field-independent basis, Debye-Ang**3):
 XXXX=          -4146.3256 YYYY=          -4146.3270 ZZZZ=           -110.8247 XXXY=             -0.0000
 XXXZ=             -0.0000 YYYX=              0.0000 YYYZ=              0.0000 ZZZX=             -0.0000
 ZZZY=              0.0000 XXYY=          -1382.1085 XXZZ=           -716.3711 YYZZ=           -716.3712
 XXYZ=              0.0000 YYXZ=             -0.0000 ZZXY=             -0.0000
 N-N= 8.029125944400D+02 E-N=-3.194743686051D+03  KE= 6.823367080983D+02
  Exact polarizability: 391.996   0.000 391.996   0.000   0.000  97.694
 Approx polarizability: 606.016  -0.000 606.016   0.000  -0.000 113.178
 No NMR shielding tensors so no spin-rotation constants.
 Leave Link  601 at Sun Nov 24 07:23:19 2019, MaxMem= 26843545600 cpu:              26.1 elap:               0.8
 (Enter /sob/g16/l106.exe)
 NDeriv=      3 NFrqRd=  1 NDerD0=      0 MskFDP=      11 MskDFD=      31 MskDF0=       0
 Re-enter D2Numr:  atom   0 IXYZ=3 step-up   number 1
 Skip step-back as it is equivalent to step-up.
 Max difference between analytic and numerical Dipole moment IMax=       2 EMax= 4.79D-06
 Max difference between off-diagonal Polarizability IMax=       1 JMax=       3 EMax= 1.09D-08
 Max difference between analytic and numerical Polarizability IMax=       1 EMax= 3.24D-03
 Max difference between off-diagonal HyperPolarizability IMax=       1 JMax=       1 KMax=       2 EMax= 9.62D-03
 Max difference between analytic and numerical HyperPolarizability IMax=       4 EMax= 6.93D-03
 FinFTb:  IFil= 1 IFilD=  777 LTop=  1 LFil=      2645 LTop1=  0 IMask=  1
 At end of D2Numr F.D. properties on file   721 Mask=      11 NFrqRd=     1 NDeriv=     1 ND12= 1 LenFil=      30:
 Frequencies=    0.000000
 Property number 1 -- Alpha(-w,w) frequency  1    0.000000:
                 1             2             3 
      1   0.391995D+03  0.000000D+00  0.000000D+00
      2   0.000000D+00  0.391995D+03  0.000000D+00
      3   0.000000D+00  0.000000D+00  0.976926D+02
 Property number 5 -- Beta(-w,w,0) frequency  1    0.000000:
                 1 
      1   0.000000D+00
      2   0.281660D-02
      3   0.000000D+00
      4   0.000000D+00
      5   0.000000D+00
      6   0.000000D+00
      7   0.281660D-02
      8   0.000000D+00
      9  -0.245186D-01
     10   0.000000D+00
     11   0.000000D+00
     12   0.516371D-02
     13   0.000000D+00
     14   0.000000D+00
     15   0.000000D+00
     16   0.000000D+00
     17   0.516371D-02
     18   0.000000D+00
 At end of D2Numr F.D. properties on file   722 Mask=      31 NFrqRd=     1 NDeriv=     3 ND12= 1 LenFil=     138:
 Frequencies=    0.000000
 Property number 1 -- Alpha(-w,w) derivatives, frequency  1    0.000000:
                 1             2             3             4             5 
      1   0.000000D+00  0.140562D-03  0.000000D+00  0.975997D-02  0.000000D+00
      2   0.140562D-03  0.000000D+00  0.000000D+00  0.000000D+00 -0.175930D-01
      3   0.000000D+00  0.000000D+00  0.000000D+00  0.000000D+00  0.000000D+00
                 6             7             8             9 
      1   0.000000D+00  0.000000D+00  0.000000D+00  0.000000D+00
      2   0.000000D+00  0.000000D+00  0.000000D+00  0.577744D-02
      3   0.555914D-02  0.000000D+00  0.577744D-02  0.000000D+00
 Property number 5 -- Beta(-w,w,0) derivatives, frequency  1    0.000000:
                 1             2             3 
      1   0.239152D+06 -0.698893D-04 -0.134773D-04
      2   0.000000D+00  0.797200D+05  0.000000D+00
      3   0.797210D+05  0.271571D-04 -0.317768D-05
      4   0.958353D-05  0.524448D-05  0.131291D+05
      5   0.000000D+00  0.000000D+00  0.000000D+00
      6   0.131299D+05 -0.195245D-04  0.286970D-05
      7   0.000000D+00  0.797200D+05  0.000000D+00
      8   0.797210D+05  0.271571D-04 -0.317768D-05
      9   0.000000D+00  0.239172D+06  0.000000D+00
     10   0.000000D+00  0.000000D+00  0.000000D+00
     11   0.298895D-05  0.891072D-05  0.131305D+05
     12   0.000000D+00  0.131314D+05  0.000000D+00
     13   0.958353D-05  0.524448D-05  0.131291D+05
     14   0.000000D+00  0.000000D+00  0.000000D+00
     15   0.298895D-05  0.891072D-05  0.131305D+05
     16   0.131299D+05 -0.195245D-04  0.286970D-05
     17   0.000000D+00  0.131314D+05  0.000000D+00
     18   0.138095D-05 -0.445864D-05  0.143342D+05
 Property number 6 -- Beta(w,w,-2w) derivatives, frequency  1    0.000000:
                 1             2             3 
      1   0.000000D+00  0.000000D+00  0.000000D+00
      2   0.000000D+00  0.000000D+00  0.000000D+00
      3   0.000000D+00  0.000000D+00  0.000000D+00
      4   0.975997D-02  0.000000D+00  0.000000D+00
      5   0.000000D+00  0.000000D+00  0.000000D+00
      6   0.000000D+00  0.000000D+00  0.000000D+00
      7   0.000000D+00  0.000000D+00  0.000000D+00
      8  -0.175930D-01  0.000000D+00  0.000000D+00
      9   0.000000D+00  0.577744D-02  0.000000D+00
     10   0.000000D+00  0.000000D+00  0.000000D+00
     11   0.000000D+00  0.577744D-02  0.000000D+00
     12   0.555914D-02  0.000000D+00  0.000000D+00
     13  -0.698893D-04 -0.134773D-04  0.000000D+00
     14   0.797200D+05  0.000000D+00  0.000000D+00
     15   0.271571D-04 -0.317768D-05  0.000000D+00
     16   0.524448D-05  0.131291D+05  0.000000D+00
     17   0.000000D+00  0.000000D+00  0.000000D+00
     18  -0.195245D-04  0.286970D-05  0.000000D+00
 At end of D2Numr F.D. properties file   788 does not exist.
 Leave Link  106 at Sun Nov 24 07:23:19 2019, MaxMem= 26843545600 cpu:               7.6 elap:               0.2
 (Enter /sob/g16/l9999.exe)
 AllDun F.D. properties on file 20721 Mask=      11 NFrqRd=     1 NDeriv=     1 ND12= 1 LenFil=      30:
 Frequencies=    0.000000
 Property number 1 -- Alpha(-w,w) frequency  1    0.000000:
                 1             2             3 
      1   0.391995D+03  0.000000D+00  0.000000D+00
      2   0.000000D+00  0.391995D+03  0.000000D+00
      3   0.000000D+00  0.000000D+00  0.976926D+02
 Property number 5 -- Beta(-w,w,0) frequency  1    0.000000:
                 1 
      1   0.000000D+00
      2   0.281660D-02
      3   0.000000D+00
      4   0.000000D+00
      5   0.000000D+00
      6   0.000000D+00
      7   0.281660D-02
      8   0.000000D+00
      9  -0.245186D-01
     10   0.000000D+00
     11   0.000000D+00
     12   0.516371D-02
     13   0.000000D+00
     14   0.000000D+00
     15   0.000000D+00
     16   0.000000D+00
     17   0.516371D-02
     18   0.000000D+00
 AllDun F.D. properties on file 20722 Mask=      31 NFrqRd=     1 NDeriv=     3 ND12= 1 LenFil=     138:
 Frequencies=    0.000000
 Property number 1 -- Alpha(-w,w) derivatives, frequency  1    0.000000:
                 1             2             3             4             5 
      1   0.000000D+00  0.140562D-03  0.000000D+00  0.975997D-02  0.000000D+00
      2   0.140562D-03  0.000000D+00  0.000000D+00  0.000000D+00 -0.175930D-01
      3   0.000000D+00  0.000000D+00  0.000000D+00  0.000000D+00  0.000000D+00
                 6             7             8             9 
      1   0.000000D+00  0.000000D+00  0.000000D+00  0.000000D+00
      2   0.000000D+00  0.000000D+00  0.000000D+00  0.577744D-02
      3   0.555914D-02  0.000000D+00  0.577744D-02  0.000000D+00
 Property number 5 -- Beta(-w,w,0) derivatives, frequency  1    0.000000:
                 1             2             3 
      1   0.239152D+06 -0.698893D-04 -0.134773D-04
      2   0.000000D+00  0.797200D+05  0.000000D+00
      3   0.797210D+05  0.271571D-04 -0.317768D-05
      4   0.958353D-05  0.524448D-05  0.131291D+05
      5   0.000000D+00  0.000000D+00  0.000000D+00
      6   0.131299D+05 -0.195245D-04  0.286970D-05
      7   0.000000D+00  0.797200D+05  0.000000D+00
      8   0.797210D+05  0.271571D-04 -0.317768D-05
      9   0.000000D+00  0.239172D+06  0.000000D+00
     10   0.000000D+00  0.000000D+00  0.000000D+00
     11   0.298895D-05  0.891072D-05  0.131305D+05
     12   0.000000D+00  0.131314D+05  0.000000D+00
     13   0.958353D-05  0.524448D-05  0.131291D+05
     14   0.000000D+00  0.000000D+00  0.000000D+00
     15   0.298895D-05  0.891072D-05  0.131305D+05
     16   0.131299D+05 -0.195245D-04  0.286970D-05
     17   0.000000D+00  0.131314D+05  0.000000D+00
     18   0.138095D-05 -0.445864D-05  0.143342D+05
 Property number 6 -- Beta(w,w,-2w) derivatives, frequency  1    0.000000:
                 1             2             3 
      1   0.000000D+00  0.000000D+00  0.000000D+00
      2   0.000000D+00  0.000000D+00  0.000000D+00
      3   0.000000D+00  0.000000D+00  0.000000D+00
      4   0.975997D-02  0.000000D+00  0.000000D+00
      5   0.000000D+00  0.000000D+00  0.000000D+00
      6   0.000000D+00  0.000000D+00  0.000000D+00
      7   0.000000D+00  0.000000D+00  0.000000D+00
      8  -0.175930D-01  0.000000D+00  0.000000D+00
      9   0.000000D+00  0.577744D-02  0.000000D+00
     10   0.000000D+00  0.000000D+00  0.000000D+00
     11   0.000000D+00  0.577744D-02  0.000000D+00
     12   0.555914D-02  0.000000D+00  0.000000D+00
     13  -0.698893D-04 -0.134773D-04  0.000000D+00
     14   0.797200D+05  0.000000D+00  0.000000D+00
     15   0.271571D-04 -0.317768D-05  0.000000D+00
     16   0.524448D-05  0.131291D+05  0.000000D+00
     17   0.000000D+00  0.000000D+00  0.000000D+00
     18  -0.195245D-04  0.286970D-05  0.000000D+00
 Dipole is zero, so no output in dipole orientation.

 ----------------------------------------------------------------------

 Electric dipole moment (input orientation):
 (Debye = 10**-18 statcoulomb cm , SI units = C m)
                  (au)            (Debye)         (10**-30 SI)
   Tot        0.000000D+00      0.000000D+00      0.000000D+00
   x          0.000000D+00      0.000000D+00      0.000000D+00
   y          0.000000D+00      0.000000D+00      0.000000D+00
   z          0.000000D+00      0.000000D+00      0.000000D+00

 Dipole polarizability, Alpha (input orientation).
 (esu units = cm**3 , SI units = C**2 m**2 J**-1)
 Alpha(0;0):
               (au)            (10**-24 esu)      (10**-40 SI)
   iso        0.293894D+03      0.435506D+02      0.484566D+02
   aniso      0.294302D+03      0.436111D+02      0.485238D+02
   xx         0.391995D+03      0.580876D+02      0.646312D+02
   yx         0.000000D+00      0.000000D+00      0.000000D+00
   yy         0.391995D+03      0.580876D+02      0.646312D+02
   zx         0.000000D+00      0.000000D+00      0.000000D+00
   zy         0.000000D+00      0.000000D+00      0.000000D+00
   zz         0.976926D+02      0.144765D+02      0.161073D+02

 Dipole polarizability, Alpha (input orientation).
 (esu units = cm**3 , SI units = C**2 m**2 J**-1)
 Alpha(0;0):
               (au)            (10**-24 esu)      (10**-40 SI)
   iso        0.293894D+03      0.435506D+02      0.484566D+02
   aniso      0.294302D+03      0.436111D+02      0.485238D+02
   xx         0.391995D+03      0.580876D+02      0.646312D+02
   yx         0.000000D+00      0.000000D+00      0.000000D+00
   yy         0.391995D+03      0.580876D+02      0.646312D+02
   zx         0.000000D+00      0.000000D+00      0.000000D+00
   zy         0.000000D+00      0.000000D+00      0.000000D+00
   zz         0.976926D+02      0.144765D+02      0.161073D+02

 First dipole hyperpolarizability, Beta (input orientation).
 ||, _|_  parallel and perpendicular components, (z) with respect to z axis,
 vector components x,y,z.  Values do not include the 1/n! factor of 1/2.
 (esu units = statvolt**-1 cm**4 , SI units = C**3 m**3 J**-2)
 Beta(0;0,0):
               (au)            (10**-30 esu)      (10**-50 SI)
   || (z)     0.000000D+00      0.000000D+00      0.000000D+00
   _|_(z)     0.000000D+00      0.000000D+00      0.000000D+00
   x          0.000000D+00      0.000000D+00      0.000000D+00
   y         -0.496148D-01     -0.428634D-03     -0.159083D-03
   z          0.000000D+00      0.000000D+00      0.000000D+00
   ||         0.992297D-02      0.857267D-04      0.318166D-04
   xxx        0.000000D+00      0.000000D+00      0.000000D+00
   xxy        0.281660D-02      0.243332D-04      0.903102D-05
   yxy        0.000000D+00      0.000000D+00      0.000000D+00
   yyy       -0.245186D-01     -0.211821D-03     -0.786154D-04
   xxz        0.000000D+00      0.000000D+00      0.000000D+00
   yxz        0.000000D+00      0.000000D+00      0.000000D+00
   yyz        0.000000D+00      0.000000D+00      0.000000D+00
   zxz        0.000000D+00      0.000000D+00      0.000000D+00
   zyz        0.516371D-02      0.446104D-04      0.165567D-04
   zzz        0.000000D+00      0.000000D+00      0.000000D+00

 First dipole hyperpolarizability, Beta (input orientation).
 ||, _|_  parallel and perpendicular components, (z) with respect to z axis,
 vector components x,y,z.  Values do not include the 1/n! factor of 1/2.
 (esu units = statvolt**-1 cm**4 , SI units = C**3 m**3 J**-2)
 Beta(0;0,0):
               (au)            (10**-30 esu)      (10**-50 SI)
   || (z)     0.000000D+00      0.000000D+00      0.000000D+00
   _|_(z)     0.000000D+00      0.000000D+00      0.000000D+00
   x          0.000000D+00      0.000000D+00      0.000000D+00
   y         -0.496148D-01     -0.428634D-03     -0.159083D-03
   z          0.000000D+00      0.000000D+00      0.000000D+00
   ||         0.992297D-02      0.857267D-04      0.318166D-04
   xxx        0.000000D+00      0.000000D+00      0.000000D+00
   xxy        0.281660D-02      0.243332D-04      0.903102D-05
   yxy        0.000000D+00      0.000000D+00      0.000000D+00
   yyy       -0.245186D-01     -0.211821D-03     -0.786154D-04
   xxz        0.000000D+00      0.000000D+00      0.000000D+00
   yxz        0.000000D+00      0.000000D+00      0.000000D+00
   yyz        0.000000D+00      0.000000D+00      0.000000D+00
   zxz        0.000000D+00      0.000000D+00      0.000000D+00
   zyz        0.516371D-02      0.446104D-04      0.165567D-04
   zzz        0.000000D+00      0.000000D+00      0.000000D+00

 Second dipole hyperpolarizability, Gamma (input orientation).
 ||, _|_  isotropic parallel and perpendicular components.
 Values do not include the 1/n! factor of 1/6.
 (esu units = statvolt**-2 cm**5 , SI units = C**4 m**4 J**-3)
 Gamma(0;0,0,0):
               (au)            (10**-36 esu)      (10**-61 SI)
   ||         0.140924D+06      0.709791D+02      0.878715D+02
   _|_        0.469747D+05      0.236597D+02      0.292905D+02
   xxxx       0.239152D+06      0.120454D+03      0.149121D+03
   xxyx       0.000000D+00      0.000000D+00      0.000000D+00
   xxyy       0.797200D+05      0.401525D+02      0.497085D+02
   yxyy       0.271571D-04      0.136782D-07      0.169335D-07
   yyyy       0.239172D+06      0.120464D+03      0.149133D+03
   xxzx       0.000000D+00      0.000000D+00      0.000000D+00
   xxzy       0.000000D+00      0.000000D+00      0.000000D+00
   yxzy       0.000000D+00      0.000000D+00      0.000000D+00
   yyzy       0.000000D+00      0.000000D+00      0.000000D+00
   xxzz       0.131291D+05      0.661274D+01      0.818650D+01
   yxzz       0.000000D+00      0.000000D+00      0.000000D+00
   yyzz       0.131305D+05      0.661343D+01      0.818736D+01
   zxzz       0.000000D+00      0.000000D+00      0.000000D+00
   zyzz       0.000000D+00      0.000000D+00      0.000000D+00
   zzzz       0.143342D+05      0.721968D+01      0.893789D+01

 ----------------------------------------------------------------------
 1\1\GINC-LOCALHOST\SP\RwB97XD\Gen\C18\ROOT\24-Nov-2019\0\\#p wb97xd/ge
 n polar=gamma\\wb97xd/def-TZVP opted. aug-cc-pVTZ(-f,-d) calc this\\0,
 1\C,0,0.610361,3.641747,0.\C,0,-0.610361,3.641747,0.\C,0,-1.873306,3.1
 82073,0.\C,0,-2.808434,2.397408,0.\C,0,-3.480433,1.233471,0.\C,0,-3.69
 2409,0.031294,0.\C,0,-3.459026,-1.292285,0.\C,0,-2.848665,-2.349462,0.
 \C,0,-1.819103,-3.213367,0.\C,0,-0.671999,-3.630879,0.\C,0,0.671999,-3
 .630879,0.\C,0,1.819103,-3.213367,0.\C,0,2.848665,-2.349462,0.\C,0,3.4
 59026,-1.292285,0.\C,0,3.692409,0.031294,0.\C,0,3.480433,1.233471,0.\C
 ,0,2.808434,2.397408,0.\C,0,1.873306,3.182073,0.\\Version=ES64L-G16Rev
 A.03\HF=-685.2539187\RMSD=5.022e-09\Dipole=0.,0.,0.\Polar=391.9946153,
 0.,391.9946001,0.,0.,97.6925871\HyperPolar=0.,0.0028166,0.,-0.0245186,
 0.,0.,0.,0.,0.0051637,0.\DQPolar=0.,0.,0.,-0.0010402,0.,0.,-0.0006696,
 0.0005052,0.0001644,0.,0.,0.,0.,0.,0.,0.,0.,-0.0003363\Quadrupole=0.34
 48768,0.3448768,-0.6897536,0.,0.,0.\PG=D09H [SGH(C18)]\\@


 THERE IS AN OLD, OLD RECIPE IN MAINE FOR STEWING COOT. PLACE THE
 BIRD IN A KETTLE OF WATER WITH A RED BUILDING BRICK FREE OF MORTAR AND
 BLEMISHES. PARBOIL THE COOT AND BRICK TOGETHER FOR THREE HOURS.
 POUR OFF THE WATER, REFILL THE KETTLE, AND AGAIN PARBOIL FOR THREE HOURS.
 ONCE AGAIN POUR OFF THE WATER, FOR THE LAST TIME ADD FRESH WATER,
 AND LET THE COOT AND BRICK SIMMER TOGETHER OVERNIGHT. IN THE MORNING,
 THROW AWAY THE COOT AND EAT THE BRICK.
 Job cpu time:      11 days  1 hours 33 minutes 22.9 seconds.
 Elapsed time:       0 days  7 hours 22 minutes 40.3 seconds.
 File lengths (MBytes):  RWF=    387 Int=      0 D2E=      0 Chk=     91 Scr=      1
 Normal termination of Gaussian 16 at Sun Nov 24 07:23:20 2019.
