B3LYP/6-31G* opted                                                      
SP        RB3LYP                                                      6-31G(d)            
Number of atoms                            I                4
Info1-9                                    I   N=           9
          12          11           0           0           0         110
           1          18        -502
Full Title                                 C   N=           2
B3LYP/6-31G* opted      
Route                                      C   N=           2
# b3lyp/6-31g(d) nosymm 
Charge                                     I                0
Multiplicity                               I                1
Number of electrons                        I                8
Number of alpha electrons                  I                4
Number of beta electrons                   I                4
Number of basis functions                  I               21
Number of independent functions            I               21
Number of point charges in /Mol/           I                0
Number of translation vectors              I                0
Atomic numbers                             I   N=           4
           5           1           1           1
Nuclear charges                            R   N=           4
  5.00000000E+00  1.00000000E+00  1.00000000E+00  1.00000000E+00
Current cartesian coordinates              R   N=          12
  3.25811461E-03 -2.54324038E+00  0.00000000E+00 -2.20703344E+00 -3.13022544E+00
  0.00000000E+00  1.10911163E+00 -3.12998902E+00  1.91414768E+00  1.10911163E+00
 -3.12998902E+00 -1.91414768E+00
Number of symbols in /Mol/                 I                0
Force Field                                I                0
Atom Types                                 C   N=           4
                                                
Int Atom Types                             I   N=           4
           0           0           0           0
MM charges                                 R   N=           4
  0.00000000E+00  0.00000000E+00  0.00000000E+00  0.00000000E+00
Integer atomic weights                     I   N=           4
          11           1           1           1
Real atomic weights                        R   N=           4
  1.10093053E+01  1.00782504E+00  1.00782504E+00  1.00782504E+00
Atom fragment info                         I   N=           4
           0           0           0           0
Atom residue num                           I   N=           4
           0           0           0           0
Nuclear spins                              I   N=           4
           3           1           1           1
Nuclear ZEff                               R   N=           4
 -2.75000000E+00 -1.00000000E+00 -1.00000000E+00 -1.00000000E+00
Nuclear ZNuc                               R   N=           4
  5.00000000E+00  1.00000000E+00  1.00000000E+00  1.00000000E+00
Nuclear QMom                               R   N=           4
  4.05900000E+00  0.00000000E+00  0.00000000E+00  0.00000000E+00
Nuclear GFac                               R   N=           4
  2.68863700E+00  2.79284600E+00  2.79284600E+00  2.79284600E+00
MicOpt                                     I   N=           4
          -1          -1          -1          -1
Number of residues                         I                0
Number of secondary structures             I                0
Number of contracted shells                I               10
Number of primitive shells                 I               23
Pure/Cartesian d shells                    I                1
Pure/Cartesian f shells                    I                0
Highest angular momentum                   I                2
Largest degree of contraction              I                6
Shell types                                I   N=          10
           0          -1          -1           2           0           0
           0           0           0           0
Number of primitives per shell             I   N=          10
           6           3           1           1           3           1
           3           1           3           1
Shell to atom map                          I   N=          10
           1           1           1           1           2           2
           3           3           4           4
Primitive exponents                        R   N=          23
  2.06888225E+03  3.10649570E+02  7.06830330E+01  1.98610803E+01  6.29930484E+00
  2.12702697E+00  4.72797107E+00  1.19033774E+00  3.59411683E-01  1.26751247E-01
  6.00000000E-01  1.87311370E+01  2.82539436E+00  6.40121692E-01  1.61277759E-01
  1.87311370E+01  2.82539436E+00  6.40121692E-01  1.61277759E-01  1.87311370E+01
  2.82539436E+00  6.40121692E-01  1.61277759E-01
Contraction coefficients                   R   N=          23
  1.86627459E-03  1.42514817E-02  6.95516185E-02  2.32572933E-01  4.67078712E-01
  3.63431440E-01 -1.30393797E-01 -1.30788951E-01  1.13094448E+00  1.00000000E+00
  1.00000000E+00  3.34946043E-02  2.34726953E-01  8.13757326E-01  1.00000000E+00
  3.34946043E-02  2.34726953E-01  8.13757326E-01  1.00000000E+00  3.34946043E-02
  2.34726953E-01  8.13757326E-01  1.00000000E+00
P(S=P) Contraction coefficients            R   N=          23
  0.00000000E+00  0.00000000E+00  0.00000000E+00  0.00000000E+00  0.00000000E+00
  0.00000000E+00  7.45975799E-02  3.07846677E-01  7.43456834E-01  1.00000000E+00
  0.00000000E+00  0.00000000E+00  0.00000000E+00  0.00000000E+00  0.00000000E+00
  0.00000000E+00  0.00000000E+00  0.00000000E+00  0.00000000E+00  0.00000000E+00
  0.00000000E+00  0.00000000E+00  0.00000000E+00
Coordinates of each shell                  R   N=          30
  3.25811461E-03 -2.54324038E+00  0.00000000E+00  3.25811461E-03 -2.54324038E+00
  0.00000000E+00  3.25811461E-03 -2.54324038E+00  0.00000000E+00  3.25811461E-03
 -2.54324038E+00  0.00000000E+00 -2.20703344E+00 -3.13022544E+00  0.00000000E+00
 -2.20703344E+00 -3.13022544E+00  0.00000000E+00  1.10911163E+00 -3.12998902E+00
  1.91414768E+00  1.10911163E+00 -3.12998902E+00  1.91414768E+00  1.10911163E+00
 -3.12998902E+00 -1.91414768E+00  1.10911163E+00 -3.12998902E+00 -1.91414768E+00
Num ILSW                                   I              100
ILSW                                       I   N=         100
           0           1           0           0           2           0
           0           0           0           0         402          -1
           5           0           0           0           0           0
           0           0           1           0           0           0
           1           1           0           0           0           0
           0           0      100000           0          -1           0
           0           0           0           0           0           0
           0           0           0           1           0           0
           0 -2000000000           1           0           0           0
           0           0           4          52           0           0
           0           0           5           0           0           0
           0           0           0           0           0           1
           0           0           0           0           0           0
           0           0           0           0           0           0
           0           0           0           0           0           0
           0           0           0           0           0           0
           0           0           0           0
Num RLSW                                   I               52
RLSW                                       R   N=          52
  8.00000000E-01  7.20000000E-01  1.00000000E+00  8.10000000E-01  2.00000000E-01
  0.00000000E+00  0.00000000E+00  1.00000000E+00  0.00000000E+00  0.00000000E+00
  0.00000000E+00  0.00000000E+00  1.00000000E+00  0.00000000E+00  0.00000000E+00
  0.00000000E+00  0.00000000E+00  1.00000000E+00  0.00000000E+00  0.00000000E+00
  0.00000000E+00  0.00000000E+00  1.00000000E+00  0.00000000E+00  0.00000000E+00
  0.00000000E+00  0.00000000E+00  1.00000000E+00  0.00000000E+00  0.00000000E+00
  0.00000000E+00  0.00000000E+00  1.00000000E+00  0.00000000E+00  0.00000000E+00
  0.00000000E+00  0.00000000E+00  0.00000000E+00  1.00000000E+00  1.00000000E+00
  0.00000000E+00  1.00000000E+00  0.00000000E+00  0.00000000E+00  0.00000000E+00
  0.00000000E+00  0.00000000E+00  0.00000000E+00  0.00000000E+00  0.00000000E+00
  0.00000000E+00  0.00000000E+00
MxBond                                     I                3
NBond                                      I   N=           4
           3           1           1           1
IBond                                      I   N=          12
           2           3           4           1           0           0
           1           0           0           1           0           0
RBond                                      R   N=          12
  1.00000000E+00  1.00000000E+00  1.00000000E+00  1.00000000E+00  0.00000000E+00
  0.00000000E+00  1.00000000E+00  0.00000000E+00  0.00000000E+00  1.00000000E+00
  0.00000000E+00  0.00000000E+00
Virial Ratio                               R      2.012717141156345E+00
SCF Energy                                 R     -2.659200909292404E+01
Total Energy                               R     -2.659200909292404E+01
RMS Density                                R      2.490385038039470E-09
Job Status                                 I                1
Nuclear derivative order                   I                0
External E-field                           R   N=          35
  0.00000000E+00  0.00000000E+00  0.00000000E+00  0.00000000E+00  0.00000000E+00
  0.00000000E+00  0.00000000E+00  0.00000000E+00  0.00000000E+00  0.00000000E+00
  0.00000000E+00  0.00000000E+00  0.00000000E+00  0.00000000E+00  0.00000000E+00
  0.00000000E+00  0.00000000E+00  0.00000000E+00  0.00000000E+00  0.00000000E+00
  0.00000000E+00  0.00000000E+00  0.00000000E+00  0.00000000E+00  0.00000000E+00
  0.00000000E+00  0.00000000E+00  0.00000000E+00  0.00000000E+00  0.00000000E+00
  0.00000000E+00  0.00000000E+00  0.00000000E+00  0.00000000E+00  0.00000000E+00
IOpCl                                      I                0
IROHF                                      I                0
Alpha Orbital Energies                     R   N=          21
 -6.77911069E+00 -5.12199369E-01 -3.41186414E-01 -3.41099252E-01 -8.69110310E-02
  1.68220581E-01  1.68309662E-01  1.80470979E-01  3.87438160E-01  3.87475106E-01
  4.34871422E-01  5.13708482E-01  8.91580229E-01  8.91746481E-01  9.44382802E-01
  1.24481642E+00  1.24485127E+00  1.49113944E+00  1.77546954E+00  1.77558835E+00
  3.39311809E+00
Alpha MO coefficients                      R   N=         441
  9.92755170E-01  5.44891926E-02 -1.82216122E-07  9.21895433E-04 -1.69277653E-16
 -1.78517391E-02 -1.61217801E-06  8.04442639E-04  1.56014314E-16 -9.40815764E-03
 -9.87255392E-03 -9.40897427E-03  1.90868605E-07 -2.72966251E-16  2.14512182E-16
 -7.15523470E-04  3.30663754E-03 -7.15371648E-04  3.30778433E-03 -7.15371648E-04
  3.30778433E-03 -1.96017105E-01  3.24048900E-01  6.21675939E-06 -5.24516536E-02
  2.01736326E-15  2.92391856E-01  3.18547528E-06  1.14374646E-03  5.81760760E-16
  1.83635168E-02 -9.22569245E-03  1.83385123E-02  1.13124534E-06  6.52264683E-16
 -1.78086005E-16  1.60131141E-01  1.06128074E-01  1.60096441E-01  1.06106327E-01
  1.60096441E-01  1.06106327E-01  1.12345596E-05 -2.54859580E-05  4.13502674E-01
  3.51496203E-05 -6.28040922E-12  2.96123649E-06  1.48402628E-01  6.08131979E-06
 -2.25319782E-12 -2.44850496E-02 -1.25629973E-06  2.44917528E-02 -1.17769822E-02
 -4.29555019E-13  1.78792952E-13 -2.77145367E-01 -2.85366299E-01  1.38591513E-01
  1.42700574E-01  1.38591513E-01  1.42700574E-01  1.22978175E-15 -2.41952913E-15
  6.27916137E-12  8.87529594E-16  4.13476982E-01 -5.38805304E-15  2.25320553E-12
  2.72452659E-15  1.48465226E-01 -3.71543230E-13  1.91926487E-16  3.72743754E-13
 -1.78763662E-13  2.82920954E-02 -1.17670949E-02 -4.20966079E-12 -4.33165062E-12
  2.40016988E-01  2.47205028E-01 -2.40016988E-01 -2.47205028E-01 -5.70266283E-02
  7.31058402E-02 -3.48630921E-05  4.71421122E-01 -9.58417052E-18  3.32444046E-01
 -6.12716179E-05  5.53331763E-01  8.28462293E-16 -1.55835226E-03  3.22514363E-03
 -1.55386061E-03 -2.13681667E-06 -2.28817229E-16  3.99960497E-16 -5.28429513E-02
 -7.97778746E-02 -5.28182627E-02 -7.97289898E-02 -5.28182627E-02 -7.97289898E-02
 -5.49520591E-14  6.47105438E-14 -4.88154179E-12 -3.66037242E-14  3.27615431E-01
  9.25438604E-13 -2.51934712E-11 -2.35035096E-13  1.68941105E+00 -3.75630920E-13
  1.18967803E-14  3.87939336E-13 -1.92455289E-13 -2.96524017E-02  1.29246742E-02
 -1.91516830E-12 -2.67879298E-11 -1.10584620E-01 -1.52860278E+00  1.10584620E-01
  1.52860278E+00  1.47667354E-04 -2.02383001E-04  3.27600023E-01  1.40224848E-04
  4.87786406E-12 -2.56557777E-03  1.69063022E+00  7.96825178E-04  2.51778149E-11
  2.56575822E-02 -2.65888826E-05 -2.56782343E-02  1.29388429E-02 -4.41852132E-13
  1.92865134E-13  1.27673269E-01  1.76740965E+00 -6.37183593E-02 -8.81910822E-01
 -6.37183593E-02 -8.81910822E-01 -1.63045603E-01  2.70099037E-01  4.03952133E-04
 -1.18879188E-01 -1.16734190E-13  2.59707911E+00  1.93611059E-03 -6.58789210E-01
 -5.25049796E-13  1.87010775E-02  2.98019507E-02  1.86671137E-02  1.29366490E-05
  1.17560713E-14 -5.29058031E-15 -4.86174858E-02 -1.34663659E+00 -4.87563627E-02
 -1.34916686E+00 -4.87563627E-02 -1.34916686E+00 -4.72797882E-06  4.21724632E-04
 -1.02473769E+00 -1.95288835E-04 -7.85149130E-12 -4.16039342E-04  1.28557115E+00
  2.37189809E-04  9.84483135E-12  5.00453444E-02  4.97448842E-06 -4.99989417E-02
  2.36322855E-02 -4.42614409E-13  1.80770030E-13  2.12440991E-01  3.40650922E-02
 -1.06112046E-01 -1.71499488E-02 -1.06112046E-01 -1.71499488E-02  4.49818334E-16
 -1.71745299E-14  7.84695257E-12  1.03867188E-14 -1.02482928E+00  2.03088441E-14
 -9.85247445E-12 -9.95241186E-15  1.28519526E+00 -3.85843147E-13 -1.51213158E-15
  3.81665617E-13 -1.81412805E-13 -5.77806601E-02  2.36056608E-02 -1.63028741E-12
 -2.64485297E-13 -1.83892592E-01 -2.92670061E-02  1.83892592E-01  2.92670061E-02
  2.19783831E-02 -1.97228768E-02  2.38897712E-04 -1.15652746E+00 -5.04384024E-15
 -2.05773580E-01 -4.15403105E-04  1.16780704E+00  1.33629100E-14  1.67418764E-02
 -2.16059712E-02  1.67415121E-02 -7.72071600E-07 -1.88807956E-15 -2.86535739E-16
  6.93158418E-02  5.76095556E-02  6.93377082E-02  5.78273170E-02  6.93377082E-02
  5.78273170E-02 -5.44130254E-02 -1.58732560E+00 -3.16912181E-04 -1.26728557E-01
 -7.93168433E-15  3.27253427E+00  1.05743153E-03 -3.41608560E-01 -2.25161283E-15
 -1.38801650E-01  4.96590879E-02 -1.38749069E-01  2.65171277E-05  4.21356322E-15
 -2.07968842E-15 -2.79218695E-01 -6.02666780E-01 -2.79283301E-01 -6.03390183E-01
 -2.79283301E-01 -6.03390183E-01 -1.08690814E-14  2.08315716E-13 -2.28082207E-12
 -4.19492692E-14  6.35547100E-01 -4.59182956E-13  4.72692892E-12  7.78829742E-14
 -1.31632448E+00 -1.07794413E-12  3.12752620E-14  1.03279914E-12 -6.42460382E-13
 -3.39187756E-01  1.79412622E-01 -3.21394084E-12  6.49142556E-12 -7.49693005E-01
  1.51726986E+00  7.49693005E-01 -1.51726986E+00 -1.18473763E-05  4.61867906E-04
 -6.35765693E-01 -1.57296547E-04 -2.27587349E-12 -1.21508884E-03  1.31693985E+00
  3.25116215E-04  4.72202734E-12 -2.93663983E-01  2.25977514E-05  2.93708960E-01
 -1.79630353E-01  1.21689855E-12 -6.42938252E-13 -8.65848565E-01  1.75272307E+00
  4.32739510E-01 -8.75730823E-01  4.32739510E-01 -8.75730823E-01  4.60848055E-02
 -1.40711410E+00 -2.64124962E-04  2.51490395E-01  1.02354094E-13  3.39752417E+00
  7.07168181E-04 -5.74695679E-01 -2.22201059E-13  1.01235029E-01 -2.29486331E-01
  1.01167815E-01 -6.36219251E-05 -5.65081059E-14  2.82129500E-14  6.49051827E-01
 -1.42691276E+00  6.49483570E-01 -1.42767750E+00  6.49483570E-01 -1.42767750E+00
  4.93066926E-06  1.82239106E-07 -1.19994449E-03  1.65248881E-05  1.31285890E-14
 -2.99522382E-05  1.57784270E-02  3.88101199E-06 -1.90378760E-13 -4.21486457E-01
 -2.11010046E-04  4.21692015E-01  8.73503969E-01 -6.06217142E-12 -1.08949263E-11
  1.92986529E-02  4.07281028E-04 -9.58697569E-03 -2.13914870E-04 -9.58697569E-03
 -2.13914870E-04  7.32888546E-17 -3.51273813E-15 -1.52261644E-14 -2.78451623E-15
 -1.18968602E-03  9.55421791E-15  1.94848417E-13  1.98744245E-15  1.57581772E-02
 -5.25340054E-12 -7.08629998E-15  5.25869926E-12  1.08911555E-11  4.86338228E-01
  8.73766380E-01  2.41827218E-13 -1.20967472E-15 -1.66989555E-02 -3.31248961E-04
  1.66989555E-02  3.31248961E-04  6.18674107E-02  1.07963584E-01 -4.11777794E-05
  5.43170974E-02  2.07753782E-15 -8.12198048E-01 -3.44799692E-04  1.77247183E-01
 -2.32317337E-15 -4.99372468E-01  1.06064780E+00 -4.99465329E-01  2.83906106E-04
  7.78188083E-15  1.99213680E-16  3.78914500E-01  1.26172630E-01  3.79253676E-01
  1.26279061E-01  3.79253676E-01  1.26279061E-01  4.00270638E-05 -2.57542611E-04
  2.78223793E-01  1.09458043E-04  1.57426870E-12  7.57917849E-05  2.45223175E-01
  2.39656995E-05  1.39041427E-12 -8.34760720E-01  2.71255051E-04  8.34586428E-01
 -5.33445866E-01  5.46417444E-12 -3.02092610E-12  8.69050425E-01 -2.20205949E-01
 -4.34077184E-01  1.09910950E-01 -4.34077184E-01  1.09910950E-01 -2.32289706E-15
  6.07847365E-15 -1.57850071E-12 -9.80834589E-16  2.78037616E-01  3.04641470E-14
 -1.38819774E-12 -4.54725292E-15  2.44902976E-01  4.72761727E-12 -1.65252562E-14
 -4.73344956E-12  3.02275511E-12  9.64127460E-01 -5.32947346E-01 -4.92721477E-12
  1.24066883E-12 -7.52364533E-01  1.90882282E-01  7.52364533E-01 -1.90882282E-01
 -4.76082792E-01  4.15876543E+00  5.02549724E-06  3.68101330E-02 -1.95158153E-15
  1.10556822E+00  1.42829580E-04 -1.33482128E-01  3.98431490E-15 -2.11446267E+00
 -2.07275512E+00 -2.11433267E+00 -3.29992724E-05 -3.24827270E-15  1.35625023E-15
  1.87602083E-01 -3.70370055E-01  1.87495509E-01 -3.70400189E-01  1.87495509E-01
 -3.70400189E-01
Orthonormal basis                          R   N=         441
  4.02075134E-02  1.80653083E-01  9.60979024E-06 -1.89043671E-02  4.98079802E-19
  1.89201638E-01  1.56634466E-05 -2.54635337E-02 -6.92499632E-21  1.39487947E-01
  1.26953042E-01  1.39477698E-01  6.94702538E-07 -4.02477273E-19 -2.35391261E-20
  7.90528712E-02  1.32774011E-01  7.90460342E-02  1.32771352E-01  7.90460342E-02
  1.32771352E-01 -1.61833802E-17 -3.63265454E-16  2.23428164E-13 -1.36339787E-15
  2.84123644E-01 -1.24614079E-16  2.61524620E-13 -1.52066132E-15  3.32888254E-01
 -3.34830208E-14 -4.81801478E-16  3.31303116E-14 -3.67392080E-14  8.90518551E-02
 -4.72495265E-02 -1.93271262E-13 -1.79210715E-13  2.17918967E-01  1.99268152E-01
 -2.17918967E-01 -1.99268152E-01 -9.75214675E-06 -2.94410162E-05  2.88854934E-01
  1.77514802E-05 -2.21021410E-13 -1.70881132E-05  3.38192374E-01  1.69996780E-05
 -2.58960832E-13 -4.30026315E-02 -2.74802281E-05  4.29651259E-02 -4.75767436E-02
 -6.92725584E-14  3.67545922E-14 -2.50010434E-01 -2.31939902E-01  1.25029184E-01
  1.16005237E-01  1.25029184E-01  1.16005237E-01  4.68422113E-02  1.08332496E-01
 -2.34212546E-05  5.00435650E-01  1.22568001E-15  6.61468222E-02 -3.13315463E-05
  5.12056543E-01  1.45250798E-15  6.26550079E-02  1.06528389E-01  6.27065167E-02
 -1.38120665E-05  4.10600612E-16 -2.15672021E-16 -8.48964049E-02 -5.61327821E-02
 -8.48529722E-02 -5.61149943E-02 -8.48529722E-02 -5.61149943E-02  5.12517488E-17
  2.71842792E-16 -8.33477344E-17 -1.52673578E-16 -2.66050020E-01 -1.56195576E-16
 -5.72814732E-17 -5.24795934E-17 -2.54013929E-01 -1.06470870E-16  7.31462267E-17
  2.17938256E-16 -1.75494966E-16  7.09107302E-01 -3.76241283E-01 -1.25848079E-16
 -6.66863067E-17  2.11925054E-01 -3.29710646E-02 -2.11925054E-01  3.29710646E-02
 -1.94065712E-04 -6.86468771E-05  2.06105853E-01  1.01800443E-04 -4.15788347E-17
 -2.62796361E-05  1.88360810E-01  9.10667734E-05 -1.80489807E-16  1.33354342E-01
 -1.13534898E-04 -1.33339743E-01  8.77942289E-01  1.96191848E-16 -6.73307035E-17
  2.06117662E-01 -2.08430837E-02 -1.02906705E-01  1.04572634E-02 -1.02906705E-01
  1.04572634E-02 -2.31259657E-16 -8.61782659E-17  6.70951223E-17  1.01510234E-15
  3.50955473E-16  1.48520391E-17  2.30087839E-16 -1.10868334E-15  1.40163328E-16
  2.29893633E-16 -4.16580521E-16  3.51055579E-16 -5.07469914E-17  4.68696624E-01
  8.83359199E-01 -3.67807064E-16  4.15510224E-16 -7.59187914E-16  3.44746408E-16
 -3.09092642E-16 -1.81075762E-17  9.43577033E-01  8.47051203E-02  6.70085979E-05
 -1.10336049E-01 -4.39413704E-17  6.92541223E-03  3.57673195E-05 -8.45304111E-02
 -6.42691639E-17 -8.73498775E-02  1.23243251E-01 -8.71804592E-02  3.06102785E-04
 -2.02301562E-17  2.22836466E-16 -1.38009332E-01 -4.35972094E-02 -1.38016515E-01
 -4.35858268E-02 -1.38016515E-01 -4.35858268E-02 -3.30328603E-01  2.38037127E-01
 -4.94218767E-04 -2.15156956E-01  1.88490615E-16  1.53867613E-02 -4.42219283E-04
 -1.38032776E-01  5.08540576E-17 -1.01791936E-01  7.90478112E-01 -9.88951455E-02
  1.10562774E-03 -1.38400522E-17  6.11480665E-17 -3.10420634E-01 -9.82460148E-02
 -3.09352887E-01 -9.82314107E-02 -3.09352887E-01 -9.82314107E-02  5.77506038E-04
 -5.42453754E-04 -2.98575165E-01  4.59574644E-04  2.97456337E-16  1.24178132E-05
 -2.18830304E-01  2.57800147E-04 -1.25759546E-18 -6.13426773E-01 -2.04192710E-03
  6.14164841E-01  4.21128274E-01 -3.31211465E-16  2.58017648E-16 -3.34087730E-01
 -5.41687783E-03  1.68062649E-01  3.07558194E-03  1.68062649E-01  3.07558194E-03
 -8.32437939E-03  4.31940918E-01  5.42898219E-04 -3.73662176E-01  8.66403644E-19
 -2.78458549E-01 -8.09749295E-05  4.96437694E-02  1.34268125E-17  6.39228895E-01
 -2.99894917E-01  6.39210580E-01 -6.87025135E-05 -5.26456189E-16  3.05632454E-16
 -8.47638627E-02 -3.78828382E-01 -8.49014003E-02 -3.78989261E-01 -8.49014003E-02
 -3.78989261E-01  9.56299774E-17  2.18513363E-16 -1.12338882E-14  3.41741237E-17
  1.18025417E+00 -6.51865318E-16  5.66185824E-15  1.77662721E-16 -4.95529178E-01
  1.49445423E-15  5.33928810E-17 -1.37847620E-15  4.10570824E-16  2.07974745E-01
 -1.10348159E-01  1.00452823E-15 -5.07332805E-15 -6.64913201E-02 -4.14359411E-01
  6.64913201E-02  4.14359411E-01 -2.42370312E-05 -2.29651073E-04  1.14595065E+00
  3.39533828E-04  1.18423558E-14  2.02478076E-04 -5.62946559E-01 -1.61452820E-04
 -4.20039210E-15 -1.92015936E-01 -1.15001352E-04  1.91605135E-01 -6.26529634E-02
  2.94100525E-15 -1.58080429E-15 -2.79837104E-02  4.90479267E-01  1.39732520E-02
 -2.44938354E-01  1.39732520E-02 -2.44938354E-01  8.80540238E-02 -4.84523449E-02
  1.38650118E-04 -7.44151783E-01 -4.21165308E-16 -9.92342527E-02 -3.88462873E-04
  8.86089852E-01 -2.80436657E-16 -2.31030549E-01  4.67134340E-01 -2.31034426E-01
  1.04581291E-04  1.03640920E-15  2.97164108E-15  5.08374691E-01 -2.08262014E-01
  5.08955971E-01 -2.08514169E-01  5.08955971E-01 -2.08514169E-01  1.12657878E-01
  1.89074376E-01 -1.39267126E-04  8.00750223E-01 -4.26508860E-16 -4.95861508E-01
 -3.14861524E-04 -7.52117196E-01  1.30089504E-15  1.10065146E-02  5.39000498E-01
  1.05190759E-02  1.93503542E-04  5.77643249E-16 -6.48831905E-16  4.91130610E-01
 -3.43636255E-01  4.92089691E-01 -3.43852922E-01  4.92089691E-01 -3.43852922E-01
  6.59755608E-17  8.74100841E-17  2.02529331E-15  1.75787917E-15 -1.49289852E-01
 -7.86122657E-16 -6.50983896E-16 -1.78122378E-15 -6.79673862E-01  2.81928275E-16
  5.54696987E-16  3.97140990E-17 -2.57568291E-16 -7.00141652E-01  3.71484249E-01
 -5.38045480E-18  1.17541534E-15  9.70943744E-01 -1.87186273E-01 -9.70943744E-01
  1.87186273E-01  9.60484533E-05 -5.54925397E-06  2.00034750E-01  3.11587263E-04
 -8.05629925E-16 -3.86041514E-04  6.00346791E-01 -7.63670578E-05  1.63296018E-16
 -7.16239492E-01  4.12893976E-04  7.16009204E-01 -3.46310271E-01 -7.24327896E-16
  7.49506888E-17  1.08348860E+00 -1.93627063E-01 -5.40956618E-01  9.65072330E-02
 -5.40956618E-01  9.65072330E-02  2.64628775E-16 -2.45004837E-15 -1.60935330E-13
 -7.71032838E-16 -4.92950675E-01 -9.86186845E-16  7.61445741E-13  6.63936649E-16
  2.33194575E+00 -4.33668793E-14  1.40020949E-15  4.61687469E-14 -2.55876478E-14
  1.49135927E-01 -7.91291985E-02 -1.64368184E-13  7.98178116E-13  4.38714816E-01
 -2.11886999E+00 -4.38714816E-01  2.11886999E+00 -8.80317331E-06  1.19160234E-04
 -4.91650864E-01 -6.10234772E-05  1.61772124E-13 -5.17122265E-04  2.33508014E+00
  2.63218615E-04 -7.61715514E-13 -1.35716083E-01 -4.11711308E-05  1.35784034E-01
 -8.03281873E-02 -4.88905639E-14  2.46209391E-14 -5.02231063E-01  2.44741209E+00
  2.51002206E-01 -1.22347104E+00  2.51002206E-01 -1.22347104E+00 -4.86340205E-01
  4.54394171E+00  1.46416607E-05  2.73443630E-02 -8.40426894E-16  2.41483533E-01
 -5.53618665E-06 -3.88550038E-02  2.66372556E-15 -2.04618368E+00 -1.97822321E+00
 -2.04609067E+00 -1.35943221E-05 -8.46273136E-16  2.06563562E-16  1.47682301E-01
 -1.52069342E-01  1.47602096E-01 -1.51987707E-01  1.47602096E-01 -1.51987707E-01
 -1.71942658E-01 -1.00644844E+00 -1.48096615E-04  1.25286715E-01  1.05532295E-15
  5.53950016E+00  1.13690930E-03 -9.77907078E-01  9.29996546E-16 -2.46597753E-01
 -5.46270359E-01 -2.46614370E-01 -5.91838966E-05  2.44157757E-16  1.28319699E-16
  2.36805718E-01 -2.00774838E+00  2.36749095E-01 -2.00837692E+00  2.36749095E-01
 -2.00837692E+00
Total SCF Density                          R   N=         231
  2.04797107E+00 -1.88494002E-02  2.15953525E-01  6.49206656E-06 -1.70678132E-05
  3.41968923E-01  2.23932763E-02 -3.38933365E-02  2.84164294E-05  5.50405419E-03
 -2.51120313E-16 -3.91713622E-16 -1.35461461E-15  8.04979256E-17  3.41926428E-01
 -1.50072423E-01  1.87553065E-01  6.09092380E-06 -3.07057874E-02 -3.30710239E-15
  1.71623364E-01 -1.11533506E-06 -5.67555932E-06  1.22729767E-01  1.00954526E-05
 -7.61207021E-16  2.79928497E-06  4.40466798E-02  1.14884157E-03  8.28926117E-04
  5.04321162E-06 -1.18499135E-04  2.18101406E-15  6.40122938E-04  1.80966061E-06
  3.91064183E-06  3.96230195E-16 -2.09542011E-16  1.06758651E-15  4.43954984E-17
  1.22773907E-01 -1.27858756E-15  2.84386951E-16  7.83171861E-16  4.40838467E-02
 -2.58796712E-02  1.08773170E-02 -2.02490352E-02 -1.94546160E-03  3.80392551E-16
  1.10744444E-02 -7.26714406E-03  2.65719656E-05  3.52518118E-17  2.05049966E-03
 -1.59852708E-02 -7.05504591E-03 -1.15007654E-06  9.49602637E-04  1.40613781E-16
 -5.04255017E-03 -3.99820163E-07 -3.69875282E-05  4.88353909E-17 -1.53005708E-04
  3.65161447E-04 -2.58703896E-02  1.08585263E-02  2.02550420E-02 -1.93939702E-03
  6.82640168E-16  1.10601415E-02  7.26942812E-03  2.71091415E-05  3.27844819E-16
 -3.48802179E-04 -1.52651276E-04  2.04935157E-03 -3.29133706E-07  1.35425352E-06
 -9.73962727E-03 -9.46232362E-07  9.92216104E-17  5.84970320E-07 -3.49547021E-03
 -1.40344389E-07 -8.63225432E-18  5.76757943E-04  4.94907464E-09 -5.76839976E-04
  2.77394623E-04 -7.37752901E-16  2.77972030E-16  5.69749735E-17 -4.89052628E-17
  2.33962604E-02  8.37569585E-17  1.62956509E-18  1.49993489E-16  8.40078467E-03
  4.09708020E-17  5.29386596E-18  7.93527827E-17  2.52787878E-18  1.60088532E-03
  4.70807365E-16 -4.42117185E-17  8.77493218E-17  1.07590453E-17 -9.73084580E-03
  1.60617335E-17  3.93191523E-17 -6.20071769E-17 -3.49400882E-03 -2.21165539E-17
 -5.91570219E-18 -2.48850519E-17 -4.22519843E-18 -6.65831545E-04  2.76929047E-04
 -6.42037921E-02  1.03716791E-01 -2.29198709E-01 -1.68190887E-02  6.23286907E-16
  9.36659886E-02 -8.22571788E-02  3.61776839E-04 -8.63719702E-16  1.94664414E-02
 -2.93981688E-03 -7.68895311E-03  6.52823413E-03  1.07403465E-16 -8.96612731E-17
  2.04904097E-01 -3.50468848E-02  6.91562693E-02 -2.35998137E-01 -1.11471503E-02
  2.78570488E-15  6.19422208E-02 -8.46975517E-02  2.44616413E-04 -1.01019444E-16
  1.78099666E-02 -2.02278285E-03 -1.01480038E-02  6.72174903E-03  1.94748872E-16
 -1.37459046E-16  1.92159982E-01  1.85416053E-01 -6.41805457E-02  1.03673127E-01
  1.14617913E-01 -1.67862223E-02  1.98482999E-01  9.36481532E-02  4.11357117E-02
  3.66754164E-04  7.12683526E-02 -8.93512109E-04 -2.94022419E-03  1.26740211E-02
 -3.26401763E-03  1.35811670E-02 -5.64860536E-03 -2.55461159E-02 -4.51219711E-02
  2.04894288E-01 -3.50264636E-02  6.91204801E-02  1.18015456E-01 -1.11147740E-02
  2.04427178E-01  6.19319973E-02  4.23549456E-02  2.49774933E-04  7.34027007E-02
 -3.15333095E-03 -2.02347978E-03  1.08193930E-02 -3.36092292E-03  1.39878965E-02
 -5.81777007E-03 -4.51204850E-02 -5.89002737E-02  1.92190747E-01  1.85486547E-01
 -6.41805457E-02  1.03673127E-01  1.14617913E-01 -1.67862223E-02 -1.98482999E-01
  9.36481532E-02  4.11357117E-02  3.66754164E-04 -7.12683526E-02 -8.93512109E-04
 -2.94022419E-03  1.26740211E-02 -3.26401763E-03 -1.35811670E-02  5.64860536E-03
 -2.55461159E-02 -4.51219711E-02 -2.55383293E-02 -4.51428775E-02  2.04894288E-01
 -3.50264636E-02  6.91204801E-02  1.18015456E-01 -1.11147740E-02 -2.04427178E-01
  6.19319973E-02  4.23549456E-02  2.49774933E-04 -7.34027007E-02 -3.15333095E-03
 -2.02347978E-03  1.08193930E-02 -3.36092292E-03 -1.39878965E-02  5.81777007E-03
 -4.51204850E-02 -5.89002737E-02 -4.51428775E-02 -5.89547563E-02  1.92190747E-01
  1.85486547E-01
Mulliken Charges                           R   N=           4
 -1.85369635E-02  6.21240298E-03  6.16228025E-03  6.16228025E-03
ONIOM Charges                              I   N=          16
           0           0           0           0           0           0
           0           0           0           0           0           0
           0           0           0           0
ONIOM Multiplicities                       I   N=          16
           1           0           0           0           0           0
           0           0           0           0           0           0
           0           0           0           0