B3LYP/6-31G* opted                                                      
FOpt      RB3LYP                                                      6-31G(d)            
Number of atoms                            I                6
Info1-9                                    I   N=           9
          14          13           0           0           0         110
           2          18        -502
Full Title                                 C   N=           2
B3LYP/6-31G* opted      
Route                                      C   N=           2
# B3LYP/6-31G* opt      
Charge                                     I                0
Multiplicity                               I                1
Number of electrons                        I               22
Number of alpha electrons                  I               11
Number of beta electrons                   I               11
Number of basis functions                  I               51
Number of independent functions            I               51
Number of point charges in /Mol/           I                0
Number of translation vectors              I                0
Atomic numbers                             I   N=           6
           6           8           5           1           1           1
Nuclear charges                            R   N=           6
  6.00000000E+00  8.00000000E+00  5.00000000E+00  1.00000000E+00  1.00000000E+00
  1.00000000E+00
Current cartesian coordinates              R   N=          18
  6.50521303E-19  3.47631716E-01 -2.14570166E-28 -3.43504768E-03  2.50257669E+00
 -3.02922588E-27  3.25811246E-03 -2.54324019E+00  1.41363874E-27 -2.20703329E+00
 -3.13022521E+00 -5.06133157E-25  1.10911156E+00 -3.12998880E+00  1.91414755E+00
  1.10911156E+00 -3.12998880E+00 -1.91414755E+00
Number of symbols in /Mol/                 I                0
Force Field                                I                0
Atom Types                                 C   N=           6
                                                            
            
Int Atom Types                             I   N=           6
           0           0           0           0           0           0
MM charges                                 R   N=           6
  0.00000000E+00  0.00000000E+00  0.00000000E+00  0.00000000E+00  0.00000000E+00
  0.00000000E+00
Integer atomic weights                     I   N=           6
          12          16          11           1           1           1
Real atomic weights                        R   N=           6
  1.20000000E+01  1.59949146E+01  1.10093053E+01  1.00782504E+00  1.00782504E+00
  1.00782504E+00
Atom fragment info                         I   N=           6
           0           0           0           0           0           0
Atom residue num                           I   N=           6
           0           0           0           0           0           0
Nuclear spins                              I   N=           6
           0           0           3           1           1           1
Nuclear ZEff                               R   N=           6
 -3.60000000E+00 -5.60000000E+00 -2.75000000E+00 -1.00000000E+00 -1.00000000E+00
 -1.00000000E+00
Nuclear ZNuc                               R   N=           6
  6.00000000E+00  8.00000000E+00  5.00000000E+00  1.00000000E+00  1.00000000E+00
  1.00000000E+00
Nuclear QMom                               R   N=           6
  0.00000000E+00  0.00000000E+00  4.05900000E+00  0.00000000E+00  0.00000000E+00
  0.00000000E+00
Nuclear GFac                               R   N=           6
  0.00000000E+00  0.00000000E+00  2.68863700E+00  2.79284600E+00  2.79284600E+00
  2.79284600E+00
MicOpt                                     I   N=           6
          -1          -1          -1          -1          -1          -1
Number of residues                         I                0
Number of secondary structures             I                0
Redundant internal dimensions              I   N=           4
          14           5           8           1
Redundant internal coordinate indices      I   N=          56
           1           2           0           0           1           3
           0           0           3           4           0           0
           3           5           0           0           3           6
           0           0           1           3           4           0
           1           3           5           0           1           3
           6           0           4           3           5           0
           4           3           6           0           5           3
           6           0           2           1           3         -51
           2           1           3         -52           4           3
           6           5
Redundant internal coordinates             R   N=          14
  2.15494771E+00  2.89087375E+00  2.28690610E+00  2.28717000E+00  2.28717000E+00
  1.82924667E+00  1.83079979E+00  1.83079979E+00  1.98390503E+00  1.98390503E+00
  1.98321365E+00  3.14182603E+00  3.14083823E+00 -2.30530386E+00
ZRed-IntVec                                I   N=          14
           0           0           0           0           0           0
           0           0           0           0           0           0
           0           0
ZRed-FPVec                                 R   N=          14
  0.00000000E+00  0.00000000E+00  0.00000000E+00  0.00000000E+00  0.00000000E+00
  0.00000000E+00  0.00000000E+00  0.00000000E+00  0.00000000E+00  0.00000000E+00
  0.00000000E+00  0.00000000E+00  0.00000000E+00  0.00000000E+00
ZRed-Constraint1                           R   N=          14
  2.09419449E+00  3.07481117E+00  2.27308599E+00  2.27309761E+00  2.27309761E+00
  1.79682250E+00  1.79682133E+00  1.79682133E+00  2.00938955E+00  2.00938955E+00
  2.00938502E+00  3.14159265E+00  3.14159265E+00 -2.40107276E+00
ZRed-Constraint2                           R   N=          14
  0.00000000E+00  0.00000000E+00  0.00000000E+00  0.00000000E+00  0.00000000E+00
  0.00000000E+00  0.00000000E+00  0.00000000E+00  0.00000000E+00  0.00000000E+00
  0.00000000E+00  0.00000000E+00  0.00000000E+00  0.00000000E+00
SymInf integers                            I   N=          26
           2           2           1           1           1           1
           1          -1           0           0           0           0
           0           0           0           0           0           0
           0           0           0           0           0           0
           0           0
RotTr to input orientation                 R   N=          12
 -9.99987352E-01  5.59815733E-10  5.02946273E-03 -5.02946273E-03  2.89857233E-12
 -9.99987352E-01 -5.59823231E-10 -1.00000000E+00 -8.29633032E-14 -5.78539640E-03
  3.26138106E-12  2.75223853E-01
Number of contracted shells                I               18
Number of primitive shells                 I               45
Pure/Cartesian d shells                    I                1
Pure/Cartesian f shells                    I                0
Highest angular momentum                   I                2
Largest degree of contraction              I                6
Shell types                                I   N=          18
           0          -1          -1           2           0          -1
          -1           2           0          -1          -1           2
           0           0           0           0           0           0
Number of primitives per shell             I   N=          18
           6           3           1           1           6           3
           1           1           6           3           1           1
           3           1           3           1           3           1
Shell to atom map                          I   N=          18
           1           1           1           1           2           2
           2           2           3           3           3           3
           4           4           5           5           6           6
Primitive exponents                        R   N=          45
  3.04752488E+03  4.57369518E+02  1.03948685E+02  2.92101553E+01  9.28666296E+00
  3.16392696E+00  7.86827235E+00  1.88128854E+00  5.44249258E-01  1.68714478E-01
  8.00000000E-01  5.48467166E+03  8.25234946E+02  1.88046958E+02  5.29645000E+01
  1.68975704E+01  5.79963534E+00  1.55396162E+01  3.59993359E+00  1.01376175E+00
  2.70005823E-01  8.00000000E-01  2.06888225E+03  3.10649570E+02  7.06830330E+01
  1.98610803E+01  6.29930484E+00  2.12702697E+00  4.72797107E+00  1.19033774E+00
  3.59411683E-01  1.26751247E-01  6.00000000E-01  1.87311370E+01  2.82539436E+00
  6.40121692E-01  1.61277759E-01  1.87311370E+01  2.82539436E+00  6.40121692E-01
  1.61277759E-01  1.87311370E+01  2.82539436E+00  6.40121692E-01  1.61277759E-01
Contraction coefficients                   R   N=          45
  1.83473713E-03  1.40373228E-02  6.88426223E-02  2.32184443E-01  4.67941348E-01
  3.62311985E-01 -1.19332420E-01 -1.60854152E-01  1.14345644E+00  1.00000000E+00
  1.00000000E+00  1.83107443E-03  1.39501722E-02  6.84450781E-02  2.32714336E-01
  4.70192898E-01  3.58520853E-01 -1.10777550E-01 -1.48026263E-01  1.13076702E+00
  1.00000000E+00  1.00000000E+00  1.86627459E-03  1.42514817E-02  6.95516185E-02
  2.32572933E-01  4.67078712E-01  3.63431440E-01 -1.30393797E-01 -1.30788951E-01
  1.13094448E+00  1.00000000E+00  1.00000000E+00  3.34946043E-02  2.34726953E-01
  8.13757326E-01  1.00000000E+00  3.34946043E-02  2.34726953E-01  8.13757326E-01
  1.00000000E+00  3.34946043E-02  2.34726953E-01  8.13757326E-01  1.00000000E+00
P(S=P) Contraction coefficients            R   N=          45
  0.00000000E+00  0.00000000E+00  0.00000000E+00  0.00000000E+00  0.00000000E+00
  0.00000000E+00  6.89990666E-02  3.16423961E-01  7.44308291E-01  1.00000000E+00
  0.00000000E+00  0.00000000E+00  0.00000000E+00  0.00000000E+00  0.00000000E+00
  0.00000000E+00  0.00000000E+00  7.08742682E-02  3.39752839E-01  7.27158577E-01
  1.00000000E+00  0.00000000E+00  0.00000000E+00  0.00000000E+00  0.00000000E+00
  0.00000000E+00  0.00000000E+00  0.00000000E+00  7.45975799E-02  3.07846677E-01
  7.43456834E-01  1.00000000E+00  0.00000000E+00  0.00000000E+00  0.00000000E+00
  0.00000000E+00  0.00000000E+00  0.00000000E+00  0.00000000E+00  0.00000000E+00
  0.00000000E+00  0.00000000E+00  0.00000000E+00  0.00000000E+00  0.00000000E+00
Coordinates of each shell                  R   N=          54
 -2.16840434E-19  3.47631716E-01 -6.12156062E-28 -2.16840434E-19  3.47631716E-01
 -6.12156062E-28 -2.16840434E-19  3.47631716E-01 -6.12156062E-28 -2.16840434E-19
  3.47631716E-01 -6.12156062E-28 -3.43504768E-03  2.50257669E+00 -3.53409686E-27
 -3.43504768E-03  2.50257669E+00 -3.53409686E-27 -3.43504768E-03  2.50257669E+00
 -3.53409686E-27 -3.43504768E-03  2.50257669E+00 -3.53409686E-27  3.25811246E-03
 -2.54324019E+00  3.07971297E-27  3.25811246E-03 -2.54324019E+00  3.07971297E-27
  3.25811246E-03 -2.54324019E+00  3.07971297E-27  3.25811246E-03 -2.54324019E+00
  3.07971297E-27 -2.20703329E+00 -3.13022521E+00 -4.13994203E-25 -2.20703329E+00
 -3.13022521E+00 -4.13994203E-25  1.10911156E+00 -3.12998880E+00  1.91414755E+00
  1.10911156E+00 -3.12998880E+00  1.91414755E+00  1.10911156E+00 -3.12998880E+00
 -1.91414755E+00  1.10911156E+00 -3.12998880E+00 -1.91414755E+00
Num ILSW                                   I              100
ILSW                                       I   N=         100
           0           1           0           1           2           0
           0           0           0           0         402          -1
           5           0           0           0           2           0
           0           0           1           0           1           0
           1           0           0           0           0           0
           0           0      100000           0          -1           0
           0           0           0           0           0           0
           0           0           0           1           0           0
           0 -2000000000           1           0           0           0
           0           0           4          52           0           0
           0           0           5           0           0           0
           0           0           0           0           0           1
           0           0           0           0           0           0
           0           0           0           0           0           0
           0           0           0           0           0           0
           0           0           0           0           0           0
           0           0           0           0
Num RLSW                                   I               52
RLSW                                       R   N=          52
  8.00000000E-01  7.20000000E-01  1.00000000E+00  8.10000000E-01  2.00000000E-01
  0.00000000E+00  0.00000000E+00  1.00000000E+00  0.00000000E+00  0.00000000E+00
  0.00000000E+00  0.00000000E+00  1.00000000E+00  0.00000000E+00  0.00000000E+00
  0.00000000E+00  0.00000000E+00  1.00000000E+00  0.00000000E+00  0.00000000E+00
  0.00000000E+00  0.00000000E+00  1.00000000E+00  0.00000000E+00  0.00000000E+00
  0.00000000E+00  0.00000000E+00  1.00000000E+00  0.00000000E+00  0.00000000E+00
  0.00000000E+00  0.00000000E+00  1.00000000E+00  0.00000000E+00  0.00000000E+00
  0.00000000E+00  0.00000000E+00  0.00000000E+00  1.00000000E+00  1.00000000E+00
  0.00000000E+00  1.00000000E+00  0.00000000E+00  0.00000000E+00  0.00000000E+00
  0.00000000E+00  0.00000000E+00  0.00000000E+00  0.00000000E+00  0.00000000E+00
  0.00000000E+00  0.00000000E+00
MxBond                                     I                4
NBond                                      I   N=           6
           2           1           4           1           1           1
IBond                                      I   N=          24
           2           3           0           0           1           0
           0           0           1           4           5           6
           3           0           0           0           3           0
           0           0           3           0           0           0
RBond                                      R   N=          24
  3.00000000E+00  1.00000000E+00  0.00000000E+00  0.00000000E+00  3.00000000E+00
  0.00000000E+00  0.00000000E+00  0.00000000E+00  1.00000000E+00  1.00000000E+00
  1.00000000E+00  1.00000000E+00  1.00000000E+00  0.00000000E+00  0.00000000E+00
  0.00000000E+00  1.00000000E+00  0.00000000E+00  0.00000000E+00  0.00000000E+00
  1.00000000E+00  0.00000000E+00  0.00000000E+00  0.00000000E+00
Virial Ratio                               R      2.009507575568199E+00
SCF Energy                                 R     -1.399711700998564E+02
Total Energy                               R     -1.399711700998564E+02
RMS Force                                  R      1.359207341676038E-04
RMS Density                                R      4.477192761872195E-09
Job Status                                 I                1
Nuclear derivative order                   I                1
External E-field                           R   N=          35
  0.00000000E+00  0.00000000E+00  0.00000000E+00  0.00000000E+00  0.00000000E+00
  0.00000000E+00  0.00000000E+00  0.00000000E+00  0.00000000E+00  0.00000000E+00
  0.00000000E+00  0.00000000E+00  0.00000000E+00  0.00000000E+00  0.00000000E+00
  0.00000000E+00  0.00000000E+00  0.00000000E+00  0.00000000E+00  0.00000000E+00
  0.00000000E+00  0.00000000E+00  0.00000000E+00  0.00000000E+00  0.00000000E+00
  0.00000000E+00  0.00000000E+00  0.00000000E+00  0.00000000E+00  0.00000000E+00
  0.00000000E+00  0.00000000E+00  0.00000000E+00  0.00000000E+00  0.00000000E+00
IOpCl                                      I                0
IROHF                                      I                0
Alpha Orbital Energies                     R   N=          51
 -1.92903752E+01 -1.03640709E+01 -6.71603127E+00 -1.19307080E+00 -6.57079719E-01
 -5.63989568E-01 -5.06566265E-01 -5.06558922E-01 -3.98786489E-01 -3.36861206E-01
 -3.36759399E-01 -5.78634885E-02 -5.78096517E-02  1.40260753E-01  1.62177489E-01
  1.97929818E-01  1.97972974E-01  2.42201697E-01  4.08630073E-01  4.08677985E-01
  5.20892649E-01  5.32986573E-01  5.33080228E-01  6.86800836E-01  7.09339060E-01
  8.51396412E-01  8.70123731E-01  8.70292437E-01  9.33924757E-01  9.33952181E-01
  1.00521727E+00  1.18003768E+00  1.23725102E+00  1.23734703E+00  1.42731731E+00
  1.42733318E+00  1.52650588E+00  1.71048532E+00  1.71085742E+00  1.78375435E+00
  1.78397370E+00  1.88758856E+00  1.95031058E+00  1.95034089E+00  2.65426647E+00
  2.65431464E+00  2.82495734E+00  3.01998897E+00  3.52725855E+00  3.99993956E+00
  4.40190094E+00
Alpha MO coefficients                      R   N=        2601
 -8.04439070E-05  4.13713148E-05  6.50722694E-07 -3.75846811E-04  0.00000000E+00
 -3.41165045E-03  7.34542407E-06 -4.66150932E-03  0.00000000E+00 -1.24510985E-04
 -1.75166994E-03 -1.24485069E-04  2.89083229E-06  0.00000000E+00  0.00000000E+00
  9.92672280E-01  2.55319533E-02  2.46653606E-06 -1.56036977E-03  0.00000000E+00
  1.66227206E-02  4.03152178E-06 -2.50258392E-03  0.00000000E+00 -8.46788259E-03
 -7.36892872E-03 -8.46789048E-03 -2.05670872E-06  0.00000000E+00  0.00000000E+00
 -3.91487037E-05 -5.03309190E-04 -1.17638879E-07  6.80063727E-05  0.00000000E+00
 -1.93626661E-03 -1.20571833E-07 -5.14723237E-04  0.00000000E+00 -4.19015706E-05
  5.80264968E-04 -4.20514905E-05 -7.70198893E-07  0.00000000E+00  0.00000000E+00
  2.09580110E-05  1.98456028E-04  2.13097648E-05  1.98534686E-04  2.13097648E-05
  1.98534686E-04  9.93059458E-01  5.00207559E-02 -4.92870455E-06  2.63171157E-03
  0.00000000E+00 -7.51413411E-03 -1.22659435E-05  8.83409982E-03  0.00000000E+00
 -9.75623405E-03 -6.98351134E-03 -9.75632507E-03 -4.94618208E-06  0.00000000E+00
  0.00000000E+00 -1.39069506E-04  1.24794121E-03 -5.10530055E-07  3.59616128E-04
  0.00000000E+00 -1.08879092E-02 -7.92628647E-06  4.68684848E-03  0.00000000E+00
  1.00512056E-03 -4.23472432E-04  1.00512818E-03  2.68400619E-06  0.00000000E+00
  0.00000000E+00 -3.46656227E-05 -2.19443495E-04 -1.16405688E-08  7.42678969E-05
  0.00000000E+00  1.00234211E-02 -3.50396031E-06  3.60580418E-03  0.00000000E+00
 -2.62790617E-05 -7.43130070E-04 -2.62115159E-05  6.85223487E-07  0.00000000E+00
  0.00000000E+00 -1.49785595E-04 -9.83245964E-04 -1.50511193E-04 -9.82773247E-04
 -1.50511193E-04 -9.82773247E-04 -2.77052975E-04 -1.64789908E-04 -1.33641542E-06
  7.33605360E-04  0.00000000E+00  9.27593106E-03 -4.39077102E-06  4.93445885E-03
  0.00000000E+00 -1.39555739E-04 -8.06352671E-05 -1.39208982E-04 -4.04887171E-07
  0.00000000E+00  0.00000000E+00  3.40865939E-04  1.51290702E-03  4.82031695E-07
 -3.28007440E-05  0.00000000E+00 -1.01323703E-02 -6.38098278E-06  2.67554633E-03
  0.00000000E+00  9.67345546E-04  7.08064774E-04  9.67345171E-04  8.79407205E-07
  0.00000000E+00  0.00000000E+00  9.92845891E-01  5.85136406E-02 -2.44564918E-06
  1.91718806E-03  0.00000000E+00 -2.49753472E-02  1.98509290E-06 -9.13228171E-04
  0.00000000E+00 -9.39553264E-03 -9.28773998E-03 -9.39570452E-03 -5.08722432E-07
  0.00000000E+00  0.00000000E+00 -7.07189714E-04  4.90422861E-03 -7.07298892E-04
  4.90279253E-03 -7.07298892E-04  4.90279253E-03 -1.20132023E-01  2.23143654E-01
 -3.54936717E-04  2.20102454E-01  0.00000000E+00  7.34735989E-02  1.10315230E-04
 -7.49893501E-02  0.00000000E+00 -2.50082850E-02  2.45128647E-02 -2.50083095E-02
 -9.23675945E-05  0.00000000E+00  0.00000000E+00 -2.01549933E-01  4.35188680E-01
  2.89678696E-04 -1.82964233E-01  0.00000000E+00  4.08402734E-01  9.04750493E-05
 -5.56370438E-02  0.00000000E+00 -1.08676170E-02  1.00590799E-02 -1.08672486E-02
 -3.84655919E-05  0.00000000E+00  0.00000000E+00 -4.11808373E-03  1.31971711E-03
 -8.75520893E-06  4.45485003E-03  0.00000000E+00 -5.60489036E-02  1.10393936E-05
 -2.27212870E-02  0.00000000E+00 -9.79604805E-04  4.69727462E-03 -9.82673562E-04
 -1.00301302E-05  0.00000000E+00  0.00000000E+00  1.37271611E-03  3.78849461E-03
  1.37617802E-03  3.79205067E-03  1.37617802E-03  3.79205067E-03 -1.60212587E-01
  3.46181545E-01  1.67270519E-04 -1.79490654E-01  0.00000000E+00  3.01925276E-01
  4.05421703E-05 -5.18335393E-02  0.00000000E+00 -9.31294069E-03 -7.08087737E-03
 -9.31584536E-03  2.06717542E-06  0.00000000E+00  0.00000000E+00  8.13102096E-02
 -1.87711224E-01  2.30543694E-04 -1.86702478E-01  0.00000000E+00 -2.64716722E-01
  1.22899350E-04 -9.49318440E-02  0.00000000E+00 -1.16496103E-03  1.83883767E-02
 -1.16503785E-03 -2.95541999E-05  0.00000000E+00  0.00000000E+00 -1.26357814E-01
  1.90766776E-01 -2.10690776E-04  1.24653049E-01  0.00000000E+00  1.03688204E-01
 -3.64761283E-06  6.06002107E-03  0.00000000E+00  8.10185254E-04  1.86669651E-02
  7.86885953E-04 -4.00650211E-05  0.00000000E+00  0.00000000E+00  6.00332990E-02
  2.81069110E-02  5.99222418E-02  2.80458267E-02  5.99222418E-02  2.80458267E-02
  3.24470568E-02 -7.93101908E-02  3.72405411E-04 -3.27539671E-01  0.00000000E+00
 -1.71827616E-02 -8.02792415E-05  2.26746667E-02  0.00000000E+00  1.15991688E-02
  4.54299306E-03  1.15966096E-02  1.33213083E-05  0.00000000E+00  0.00000000E+00
 -8.48431462E-02  1.95154988E-01 -9.36996826E-04  4.98106151E-01  0.00000000E+00
  3.14868976E-01 -4.59473364E-04  2.39013043E-01  0.00000000E+00  6.59312664E-03
 -3.12952613E-02  6.59365203E-03  8.12258971E-05  0.00000000E+00  0.00000000E+00
 -9.50739070E-02  1.48091572E-01 -1.16181560E-04  5.10950561E-02  0.00000000E+00
  1.83605929E-01 -3.36861944E-05  3.45198830E-02  0.00000000E+00  3.89156341E-03
 -2.18133550E-04  3.87450034E-03 -1.02012112E-05  0.00000000E+00  0.00000000E+00
  5.72468031E-02  2.55448366E-02  5.71707086E-02  2.55009981E-02  5.71707086E-02
  2.55009981E-02 -3.79812710E-05  8.77162347E-05  3.46211321E-01  3.60110209E-04
  0.00000000E+00  1.04304807E-04  1.40727967E-01  2.34168192E-04  0.00000000E+00
 -2.48714830E-04  9.36628695E-05  1.60916011E-04  3.26997335E-02  0.00000000E+00
  0.00000000E+00 -1.02379986E-05  2.45586057E-05  5.38486101E-01  1.00071146E-03
  0.00000000E+00  2.72672106E-05  3.12488472E-01  5.71177827E-04  0.00000000E+00
  1.13180604E-04 -1.04548084E-04 -1.00830188E-05 -3.51842719E-02  0.00000000E+00
  0.00000000E+00 -4.86091836E-05  7.69862614E-05  6.52526918E-02  9.09696893E-05
  0.00000000E+00  1.55795950E-04  1.37663837E-02  3.11899800E-05  0.00000000E+00
 -3.07097561E-03  1.64272639E-05  3.05500820E-03  7.04995748E-03  0.00000000E+00
  0.00000000E+00 -3.17989720E-02 -2.36519778E-02  1.59249678E-02  1.18149176E-02
  1.59249678E-02  1.18149176E-02  0.00000000E+00  0.00000000E+00  0.00000000E+00
  0.00000000E+00  3.46211358E-01  0.00000000E+00  0.00000000E+00  0.00000000E+00
  1.40711302E-01  0.00000000E+00  0.00000000E+00  0.00000000E+00  0.00000000E+00
  1.22422033E-04  3.27043287E-02  0.00000000E+00  0.00000000E+00  0.00000000E+00
  0.00000000E+00  5.38516836E-01  0.00000000E+00  0.00000000E+00  0.00000000E+00
  3.12515949E-01  0.00000000E+00  0.00000000E+00  0.00000000E+00  0.00000000E+00
  4.01624591E-05 -3.51866409E-02  0.00000000E+00  0.00000000E+00  0.00000000E+00
  0.00000000E+00  6.51892727E-02  0.00000000E+00  0.00000000E+00  0.00000000E+00
  1.37930975E-02  0.00000000E+00  0.00000000E+00  0.00000000E+00  0.00000000E+00
  3.51099157E-03  7.05035787E-03  0.00000000E+00  0.00000000E+00  2.75016102E-02
  2.04112450E-02 -2.75016102E-02 -2.04112450E-02 -8.31526965E-02  1.94522924E-01
  4.12815695E-04 -2.66086164E-01  0.00000000E+00  2.45598819E-01  7.03473202E-07
  1.02570165E-02  0.00000000E+00  2.95951950E-03 -1.60989249E-02  2.96114418E-03
  3.95610745E-05  0.00000000E+00  0.00000000E+00  6.12914598E-03 -1.37019365E-02
 -2.05301827E-04  1.42491968E-01  0.00000000E+00 -4.37232388E-02 -1.08114961E-04
  7.51622044E-02  0.00000000E+00  2.86121249E-03 -8.03288942E-04  2.86148689E-03
  6.55732635E-06  0.00000000E+00  0.00000000E+00  1.02966070E-01 -1.65026751E-01
 -5.12881154E-04  2.86426550E-01  0.00000000E+00 -8.64050106E-02 -1.62727634E-04
  9.71140742E-02  0.00000000E+00 -2.50432251E-02  2.81169689E-02 -2.50680625E-02
 -2.92579193E-05  0.00000000E+00  0.00000000E+00 -1.55949238E-01 -1.55002781E-01
 -1.56313510E-01 -1.55309999E-01 -1.56313510E-01 -1.55309999E-01 -1.13160750E-04
  2.89157280E-04  6.83929734E-02 -2.27049280E-04  0.00000000E+00  3.41631348E-04
  5.44053489E-02  8.42073256E-05  0.00000000E+00 -1.77589213E-03 -7.21667155E-05
  1.83990959E-03 -2.39556516E-02  0.00000000E+00  0.00000000E+00  1.16881879E-05
 -2.87985436E-05 -1.94178177E-01 -1.77295766E-04  0.00000000E+00 -7.26816297E-05
 -1.46705615E-01 -1.61374995E-04  0.00000000E+00 -8.16569412E-05  1.53687424E-05
  7.08552407E-05  6.17223360E-03  0.00000000E+00  0.00000000E+00  3.30547825E-05
 -8.52779179E-05  3.78170784E-01  4.84864457E-04  0.00000000E+00  1.94489476E-04
  1.48912778E-01  2.27430652E-04  0.00000000E+00 -2.25955232E-02  5.08811119E-05
  2.25266398E-02 -4.45751048E-04  0.00000000E+00  0.00000000E+00 -2.61048833E-01
 -2.65912423E-01  1.30334299E-01  1.32683293E-01  1.30334299E-01  1.32683293E-01
  0.00000000E+00  0.00000000E+00  0.00000000E+00  0.00000000E+00  6.84578121E-02
  0.00000000E+00  0.00000000E+00  0.00000000E+00  5.44085009E-02  0.00000000E+00
  0.00000000E+00  0.00000000E+00  0.00000000E+00  2.14380321E-03 -2.39374251E-02
  0.00000000E+00  0.00000000E+00  0.00000000E+00  0.00000000E+00 -1.94051331E-01
  0.00000000E+00  0.00000000E+00  0.00000000E+00 -1.46621506E-01  0.00000000E+00
  0.00000000E+00  0.00000000E+00  0.00000000E+00  6.75311855E-05  6.16300415E-03
  0.00000000E+00  0.00000000E+00  0.00000000E+00  0.00000000E+00  3.78176382E-01
  0.00000000E+00  0.00000000E+00  0.00000000E+00  1.49075151E-01  0.00000000E+00
  0.00000000E+00  0.00000000E+00  0.00000000E+00  2.60317503E-02 -4.36655048E-04
  0.00000000E+00  0.00000000E+00  2.25958812E-01  2.30130215E-01 -2.25958812E-01
 -2.30130215E-01  0.00000000E+00  0.00000000E+00  0.00000000E+00  0.00000000E+00
  5.66937962E-01  0.00000000E+00  0.00000000E+00  0.00000000E+00  5.07821609E-01
  0.00000000E+00  0.00000000E+00  0.00000000E+00  0.00000000E+00 -2.55891891E-03
 -2.03705308E-02  0.00000000E+00  0.00000000E+00  0.00000000E+00  0.00000000E+00
 -3.96954045E-01  0.00000000E+00  0.00000000E+00  0.00000000E+00 -3.97865964E-01
  0.00000000E+00  0.00000000E+00  0.00000000E+00  0.00000000E+00 -2.59152242E-04
 -1.17867927E-02  0.00000000E+00  0.00000000E+00  0.00000000E+00  0.00000000E+00
 -4.79025912E-02  0.00000000E+00  0.00000000E+00  0.00000000E+00  1.13966163E-01
  0.00000000E+00  0.00000000E+00  0.00000000E+00  0.00000000E+00 -1.22690574E-02
  3.79322601E-02  0.00000000E+00  0.00000000E+00 -1.19229021E-01 -3.11019577E-01
  1.19229021E-01  3.11019577E-01  2.44558278E-05 -7.10343562E-05  5.67033419E-01
  9.67722879E-04  0.00000000E+00 -3.49798481E-05  5.08055945E-01  1.07066559E-03
  0.00000000E+00  2.29839836E-03 -4.58755176E-05 -2.23633564E-03 -2.03498130E-02
  0.00000000E+00  0.00000000E+00  7.01658531E-06  1.14832741E-05 -3.96962254E-01
 -6.34222432E-04  0.00000000E+00 -2.22957551E-04 -3.97939008E-01 -5.74403995E-04
  0.00000000E+00  2.85218219E-04 -3.06252554E-05 -2.31332171E-04 -1.17891078E-02
  0.00000000E+00  0.00000000E+00 -2.65597601E-05 -7.17568837E-05 -4.80450752E-02
 -2.14403328E-04  0.00000000E+00  6.32387835E-04  1.13639428E-01  1.15536653E-05
  0.00000000E+00  1.05371102E-02  3.47315981E-05 -1.05820078E-02  3.79496083E-02
  0.00000000E+00  0.00000000E+00  1.37666825E-01  3.58879824E-01 -6.87849632E-02
 -1.79494384E-01 -6.87849632E-02 -1.79494384E-01  2.24774054E-02 -7.67740892E-02
 -4.01145469E-04  1.57865218E-01  0.00000000E+00  2.86754620E-01 -3.12850420E-03
  1.94622917E+00  0.00000000E+00  1.78637059E-02 -1.40858239E-02  1.78353203E-02
  3.58864183E-05  0.00000000E+00  0.00000000E+00  7.96790421E-02 -2.40203635E-02
 -9.13325139E-07  7.62239788E-02  0.00000000E+00 -1.83138934E+00 -8.79430322E-04
  5.84519759E-01  0.00000000E+00  6.75274666E-02  1.67231768E-02  6.75207052E-02
  1.04321415E-04  0.00000000E+00  0.00000000E+00  9.62148274E-02 -3.21831645E-01
  3.68605248E-04 -1.75882331E-02  0.00000000E+00  3.21666318E-01  1.02388113E-04
  1.37209172E+00  0.00000000E+00 -1.56244205E-02 -1.60897851E-02 -1.56301039E-02
 -1.21682343E-05  0.00000000E+00  0.00000000E+00  1.52623761E-02  6.05175472E-01
  1.52270581E-02  6.03473087E-01  1.52270581E-02  6.03473087E-01 -1.00378893E-01
  1.32990818E-01  4.37038698E-04 -4.79583052E-02  0.00000000E+00  2.07791963E+00
  3.40312249E-04  5.44528865E-01  0.00000000E+00  1.16991731E-02 -4.30400354E-02
  1.17824665E-02  1.42687989E-04  0.00000000E+00  0.00000000E+00  7.12950825E-02
 -1.27859189E-01 -5.16302760E-04  1.80681223E-01  0.00000000E+00 -1.13354824E+00
 -1.23992361E-03  5.01870785E-01  0.00000000E+00  2.84560466E-02 -2.69412134E-03
  2.84684061E-02  4.97775525E-05  0.00000000E+00  0.00000000E+00  4.41579176E-02
 -1.23494777E-01 -6.46053883E-04 -3.88667810E-01  0.00000000E+00  1.91448816E-01
 -4.03311725E-03 -1.07746578E+00  0.00000000E+00 -2.11188644E-02  9.69845927E-03
 -2.09597750E-02 -4.02077873E-05  0.00000000E+00  0.00000000E+00 -6.07359385E-02
 -3.11807342E-01 -6.01567939E-02 -3.05131085E-01 -6.01567939E-02 -3.05131085E-01
 -2.84928830E-04  2.93374723E-04 -1.81081584E-01 -4.46618166E-04  0.00000000E+00
  7.67956758E-03 -5.49077032E-01 -9.75427048E-04  0.00000000E+00  1.60390548E-02
 -1.23913427E-04 -1.59815228E-02 -1.76723757E-02  0.00000000E+00  0.00000000E+00
  1.48021615E-04 -2.84875699E-04  9.75287916E-02  5.65177943E-04  0.00000000E+00