 Entering Gaussian System, Link 0=g16
 Initial command:
 /sob/g16/l1.exe "/sob2/gauscr/Gau-2784.inp" -scrdir="/sob2/gauscr/"
 Default is to use a total of  36 processors:
                               36 via shared-memory
                                1 via Linda
 Entering Link 1 = /sob/g16/l1.exe PID=      2786.
  
 Copyright (c) 1988,1990,1992,1993,1995,1998,2003,2009,2016,
            Gaussian, Inc.  All Rights Reserved.
  
 This is part of the Gaussian(R) 16 program.  It is based on
 the Gaussian(R) 09 system (copyright 2009, Gaussian, Inc.),
 the Gaussian(R) 03 system (copyright 2003, Gaussian, Inc.),
 the Gaussian(R) 98 system (copyright 1998, Gaussian, Inc.),
 the Gaussian(R) 94 system (copyright 1995, Gaussian, Inc.),
 the Gaussian 92(TM) system (copyright 1992, Gaussian, Inc.),
 the Gaussian 90(TM) system (copyright 1990, Gaussian, Inc.),
 the Gaussian 88(TM) system (copyright 1988, Gaussian, Inc.),
 the Gaussian 86(TM) system (copyright 1986, Carnegie Mellon
 University), and the Gaussian 82(TM) system (copyright 1983,
 Carnegie Mellon University). Gaussian is a federally registered
 trademark of Gaussian, Inc.
  
 This software contains proprietary and confidential information,
 including trade secrets, belonging to Gaussian, Inc.
  
 This software is provided under written license and may be
 used, copied, transmitted, or stored only in accord with that
 written license.
  
 The following legend is applicable only to US Government
 contracts under FAR:
  
                    RESTRICTED RIGHTS LEGEND
  
 Use, reproduction and disclosure by the US Government is
 subject to restrictions as set forth in subparagraphs (a)
 and (c) of the Commercial Computer Software - Restricted
 Rights clause in FAR 52.227-19.
  
 Gaussian, Inc.
 340 Quinnipiac St., Bldg. 40, Wallingford CT 06492
  
  
 ---------------------------------------------------------------
 Warning -- This program may not be used in any manner that
 competes with the business of Gaussian, Inc. or will provide
 assistance to any competitor of Gaussian, Inc.  The licensee
 of this program is prohibited from giving any competitor of
 Gaussian, Inc. access to this program.  By using this program,
 the user acknowledges that Gaussian, Inc. is engaged in the
 business of creating and licensing software in the field of
 computational chemistry and represents and warrants to the
 licensee that it is not a competitor of Gaussian, Inc. and that
 it will not use this program in any manner prohibited above.
 ---------------------------------------------------------------
  

 Cite this work as:
 Gaussian 16, Revision A.03,
 M. J. Frisch, G. W. Trucks, H. B. Schlegel, G. E. Scuseria, 
 M. A. Robb, J. R. Cheeseman, G. Scalmani, V. Barone, 
 G. A. Petersson, H. Nakatsuji, X. Li, M. Caricato, A. V. Marenich, 
 J. Bloino, B. G. Janesko, R. Gomperts, B. Mennucci, H. P. Hratchian, 
 J. V. Ortiz, A. F. Izmaylov, J. L. Sonnenberg, D. Williams-Young, 
 F. Ding, F. Lipparini, F. Egidi, J. Goings, B. Peng, A. Petrone, 
 T. Henderson, D. Ranasinghe, V. G. Zakrzewski, J. Gao, N. Rega, 
 G. Zheng, W. Liang, M. Hada, M. Ehara, K. Toyota, R. Fukuda, 
 J. Hasegawa, M. Ishida, T. Nakajima, Y. Honda, O. Kitao, H. Nakai, 
 T. Vreven, K. Throssell, J. A. Montgomery, Jr., J. E. Peralta, 
 F. Ogliaro, M. J. Bearpark, J. J. Heyd, E. N. Brothers, K. N. Kudin, 
 V. N. Staroverov, T. A. Keith, R. Kobayashi, J. Normand, 
 K. Raghavachari, A. P. Rendell, J. C. Burant, S. S. Iyengar, 
 J. Tomasi, M. Cossi, J. M. Millam, M. Klene, C. Adamo, R. Cammi, 
 J. W. Ochterski, R. L. Martin, K. Morokuma, O. Farkas, 
 J. B. Foresman, and D. J. Fox, Gaussian, Inc., Wallingford CT, 2016.
 
 ******************************************
 Gaussian 16:  ES64L-G16RevA.03 25-Dec-2016
                 9-Apr-2020 
 ******************************************
 ------------------------------------------------
 #P CAM-B3LYP/aug-cc-pVTZ polar=gamma CPHF=rdfreq
 ------------------------------------------------
 1/30=1,38=101,83=1,84=49,172=1/1,6;
 2/12=2,17=6,18=5,40=1/2;
 3/5=16,6=1,7=10,11=2,25=1,30=1,74=-40/1,2,3;
 4/69=2/1;
 5/5=2,38=5,98=1/2;
 8/6=4,10=90,11=11/1;
 10/6=20001,13=10,60=-2,72=3/2;
 6/7=2,8=2,9=2,10=2,12=2,28=1/1;
 1/38=100,84=49/6(1);
 99/9=1/99;
 3/5=16,6=1,7=10,11=2,14=-3,25=1,30=1,74=-40/1,2,3;
 4/5=5,16=3,69=2/1;
 5/5=2,38=5,98=1/2;
 8/6=4,10=90,11=11/1;
 10/6=20001,13=10,60=-2,72=3/2;
 6/7=2,8=2,9=2,10=2,12=2,28=1/1;
 1/38=100,84=49/6(-6);
 99/9=1/99;
 Leave Link    1 at Thu Apr  9 11:27:19 2020, MaxMem=           0 cpu:               2.7 elap:               0.1
 (Enter /sob/g16/l101.exe)
 ----------------------
 B3LYP/6-311++G** opted
 ----------------------
 Symbolic Z-matrix:
 Charge =  0 Multiplicity = 1
 C                    -1.42185   0.48435   0. 
 H                    -1.99138   1.41345   0. 
 H                    -1.68746  -0.09937   0.88452 
 H                    -1.68746  -0.09937  -0.88452 
 N                     0.        0.80428   0. 
 C                     0.95655  -0.15842   0. 
 H                     0.29333   1.7683    0. 
 O                     0.7356   -1.35373   0. 
 H                     1.97994   0.2613    0. 
 
 ITRead=  0  0  0  0  0  0  0  0  0
 MicOpt= -1 -1 -1 -1 -1 -1 -1 -1 -1
 NAtoms=      9 NQM=        9 NQMF=       0 NMMI=      0 NMMIF=      0
                NMic=       0 NMicF=      0.
                    Isotopes and Nuclear Properties:
 (Nuclear quadrupole moments (NQMom) in fm**2, nuclear magnetic moments (NMagM)
  in nuclear magnetons)

  Atom         1           2           3           4           5           6           7           8           9
 IAtWgt=          12           1           1           1          14          12           1          16           1
 AtmWgt=  12.0000000   1.0078250   1.0078250   1.0078250  14.0030740  12.0000000   1.0078250  15.9949146   1.0078250
 NucSpn=           0           1           1           1           2           0           1           0           1
 AtZEff=  -0.0000000  -0.0000000  -0.0000000  -0.0000000  -0.0000000  -0.0000000  -0.0000000  -0.0000000  -0.0000000
 NQMom=    0.0000000   0.0000000   0.0000000   0.0000000   2.0440000   0.0000000   0.0000000   0.0000000   0.0000000
 NMagM=    0.0000000   2.7928460   2.7928460   2.7928460   0.4037610   0.0000000   2.7928460   0.0000000   2.7928460
 AtZNuc=   6.0000000   1.0000000   1.0000000   1.0000000   7.0000000   6.0000000   1.0000000   8.0000000   1.0000000
 Using perturbation frequencies:    0.000000    0.044236    0.101252
 Leave Link  101 at Thu Apr  9 11:27:20 2020, MaxMem= 26843545600 cpu:               3.7 elap:               0.1
 (Enter /sob/g16/l106.exe)
 Differentiate once with respect to electric field.
 Nuclear step= 0.001000 Angstroms, electric field step= 0.000333 atomic units, NStep=1.
 Leave Link  106 at Thu Apr  9 11:27:20 2020, MaxMem= 26843545600 cpu:               0.1 elap:               0.0
 (Enter /sob/g16/l202.exe)
                          Input orientation:                          
 ---------------------------------------------------------------------
 Center     Atomic      Atomic             Coordinates (Angstroms)
 Number     Number       Type             X           Y           Z
 ---------------------------------------------------------------------
      1          6           0       -1.421854    0.484346    0.000000
      2          1           0       -1.991379    1.413451    0.000000
      3          1           0       -1.687457   -0.099367    0.884524
      4          1           0       -1.687457   -0.099367   -0.884524
      5          7           0        0.000000    0.804279    0.000000
      6          6           0        0.956554   -0.158415    0.000000
      7          1           0        0.293332    1.768300    0.000000
      8          8           0        0.735603   -1.353732    0.000000
      9          1           0        1.979939    0.261301    0.000000
 ---------------------------------------------------------------------
                    Distance matrix (angstroms):
                    1          2          3          4          5
     1  C    0.000000
     2  H    1.089768   0.000000
     3  H    1.092542   1.778586   0.000000
     4  H    1.092542   1.778586   1.769048   0.000000
     5  N    1.457404   2.082470   2.108665   2.108665   0.000000
     6  C    2.463730   3.340819   2.788667   2.788667   1.357120
     7  H    2.142522   2.312103   2.862532   2.862532   1.007661
     8  O    2.834281   3.885065   2.868281   2.868281   2.279939
     9  H    3.409097   4.135071   3.789757   3.789757   2.053043
                    6          7          8          9
     6  C    0.000000
     7  H    2.037669   0.000000
     8  O    1.215567   3.153203   0.000000
     9  H    1.106110   2.261789   2.038800   0.000000
 Stoichiometry    C2H5NO
 Framework group  CS[SG(C2H3NO),X(H2)]
 Deg. of freedom    14
 Full point group                 CS      NOp   2
 Largest Abelian subgroup         CS      NOp   2
 Largest concise Abelian subgroup CS      NOp   2
                         Standard orientation:                         
 ---------------------------------------------------------------------
 Center     Atomic      Atomic             Coordinates (Angstroms)
 Number     Number       Type             X           Y           Z
 ---------------------------------------------------------------------
      1          6           0       -1.421854    0.484346    0.000000
      2          1           0       -1.991379    1.413451    0.000000
      3          1           0       -1.687457   -0.099367    0.884524
      4          1           0       -1.687457   -0.099367   -0.884524
      5          7           0        0.000000    0.804279    0.000000
      6          6           0        0.956554   -0.158415    0.000000
      7          1           0        0.293332    1.768300    0.000000
      8          8           0        0.735603   -1.353732    0.000000
      9          1           0        1.979939    0.261301    0.000000
 ---------------------------------------------------------------------
 Rotational constants (GHZ):          19.6086526           6.2043266           4.8559049
 Leave Link  202 at Thu Apr  9 11:27:20 2020, MaxMem= 26843545600 cpu:               0.5 elap:               0.1
 (Enter /sob/g16/l301.exe)
 Standard basis: Aug-CC-pVTZ (5D, 7F)
 Ernie: Thresh=  0.10000D-02 Tol=  0.10000D-05 Strict=F.
 Ernie:  12 primitive shells out of 175 were deleted.
 There are   227 symmetry adapted cartesian basis functions of A'  symmetry.
 There are   118 symmetry adapted cartesian basis functions of A"  symmetry.
 There are   191 symmetry adapted basis functions of A'  symmetry.
 There are   108 symmetry adapted basis functions of A"  symmetry.
   299 basis functions,   423 primitive gaussians,   345 cartesian basis functions
    16 alpha electrons       16 beta electrons
       nuclear repulsion energy       121.3770860300 Hartrees.
 IExCor=20419 DFT=T Ex+Corr=CAM-B3LYP ExCW=0 ScaHFX=  1.000000
 ScaDFX=  1.000000  1.000000  1.000000  0.810000 ScalE2=  1.000000  1.000000
 IRadAn=      5 IRanWt=     -1 IRanGd=            0 ICorTp=0 IEmpDi=  4
 HFx  wShort=  0.000000 wLong=  0.330000 cFull=  0.190000 cShort=  0.000000 cLong=  0.460000
 DFx  wShort=  0.000000 wLong=  0.330000 cFull=  0.190000 cShort=  0.000000 cLong=  0.460000
 NAtoms=    9 NActive=    9 NUniq=    8 SFac= 1.27D+00 NAtFMM=   60 NAOKFM=F Big=F
 Integral buffers will be    131072 words long.
 Raffenetti 2 integral format.
 Two-electron integral symmetry is turned on.
 Leave Link  301 at Thu Apr  9 11:27:20 2020, MaxMem= 26843545600 cpu:               2.6 elap:               0.1
 (Enter /sob/g16/l302.exe)
 NPDir=0 NMtPBC=     1 NCelOv=     1 NCel=       1 NClECP=     1 NCelD=      1
         NCelK=      1 NCelE2=     1 NClLst=     1 CellRange=     0.0.
 One-electron integrals computed using PRISM.
 One-electron integral symmetry used in STVInt
 NBasis=   299 RedAO= T EigKep=  3.05D-05  NBF=   191   108
 NBsUse=   299 1.00D-06 EigRej= -1.00D+00 NBFU=   191   108
 Precomputing XC quadrature grid using
 IXCGrd= 4 IRadAn=           5 IRanWt=          -1 IRanGd=           0 AccXCQ= 0.00D+00.
 Generated NRdTot=       0 NPtTot=           0 NUsed=           0 NTot=          32
 NSgBfM=   345   345   345   345   345 MxSgAt=     9 MxSgA2=     9.
 Leave Link  302 at Thu Apr  9 11:27:21 2020, MaxMem= 26843545600 cpu:              12.5 elap:               0.4
 (Enter /sob/g16/l303.exe)
 DipDrv:  MaxL=1.
 Leave Link  303 at Thu Apr  9 11:27:21 2020, MaxMem= 26843545600 cpu:               2.1 elap:               0.1
 (Enter /sob/g16/l401.exe)
 ExpMin= 2.53D-02 ExpMax= 1.53D+04 ExpMxC= 5.22D+02 IAcc=3 IRadAn=         5 AccDes= 0.00D+00
 Harris functional with IExCor=20419 and IRadAn=       5 diagonalized for initial guess.
 HarFok:  IExCor=20419 AccDes= 0.00D+00 IRadAn=         5 IDoV= 1 UseB2=F ITyADJ=14
 ICtDFT=  3500011 ScaDFX=  1.000000  1.000000  1.000000  1.000000
 FoFCou: FMM=F IPFlag=           0 FMFlag=      100000 FMFlg1=           0
         NFxFlg=           0 DoJE=T BraDBF=F KetDBF=T FulRan=T
         wScrn=  0.000000 ICntrl=       500 IOpCl=  0 I1Cent=   200000004 NGrid=           0
         NMat0=    1 NMatS0=      1 NMatT0=    0 NMatD0=    1 NMtDS0=    0 NMtDT0=    0
 Petite list used in FoFCou.
 Harris En= -201.475287829286    
 JPrj=0 DoOrth=F DoCkMO=F.
 Initial guess orbital symmetries:
       Occupied  (A') (A') (A') (A') (A') (A') (A') (A') (A') (A')
                 (A") (A') (A') (A") (A') (A")
       Virtual   (A') (A') (A') (A") (A') (A") (A') (A') (A") (A")
                 (A') (A') (A') (A') (A') (A") (A') (A') (A") (A')
                 (A") (A') (A') (A") (A') (A') (A') (A') (A") (A')
                 (A") (A') (A') (A") (A') (A') (A") (A') (A") (A')
                 (A") (A') (A') (A') (A") (A") (A') (A') (A') (A")
                 (A') (A') (A') (A") (A') (A') (A') (A') (A") (A')
                 (A') (A') (A") (A") (A') (A") (A') (A') (A") (A")
                 (A') (A') (A') (A") (A") (A") (A') (A') (A") (A')
                 (A') (A') (A") (A') (A') (A') (A") (A') (A") (A')
                 (A") (A") (A') (A') (A") (A') (A") (A') (A') (A')
                 (A") (A') (A") (A') (A") (A') (A') (A') (A") (A")
                 (A') (A') (A') (A') (A") (A") (A') (A") (A') (A')
                 (A") (A') (A") (A') (A") (A') (A') (A") (A') (A')
                 (A") (A') (A') (A") (A') (A') (A") (A') (A') (A")
                 (A") (A') (A') (A") (A") (A') (A') (A') (A") (A')
                 (A") (A') (A") (A') (A") (A') (A") (A') (A') (A')
                 (A') (A") (A') (A") (A') (A') (A') (A") (A") (A')
                 (A') (A') (A') (A") (A') (A') (A') (A") (A') (A")
                 (A') (A") (A') (A") (A") (A') (A') (A") (A") (A')
                 (A") (A') (A') (A") (A') (A") (A') (A') (A") (A')
                 (A") (A') (A") (A') (A') (A") (A') (A') (A") (A')
                 (A") (A') (A') (A") (A") (A') (A') (A") (A') (A')
                 (A") (A') (A') (A") (A') (A') (A') (A") (A') (A")
                 (A') (A") (A") (A') (A') (A") (A') (A') (A") (A')
                 (A") (A') (A') (A") (A") (A') (A') (A") (A') (A')
                 (A") (A') (A") (A") (A') (A') (A') (A') (A") (A')
                 (A') (A") (A') (A") (A') (A') (A') (A") (A') (A')
                 (A") (A") (A') (A') (A") (A') (A') (A') (A') (A')
                 (A') (A') (A')
 The electronic state of the initial guess is 1-A'.
 Leave Link  401 at Thu Apr  9 11:27:21 2020, MaxMem= 26843545600 cpu:              20.9 elap:               0.6
 (Enter /sob/g16/l502.exe)
 Keep R1 ints in memory in symmetry-blocked form, NReq=3023927673.
 FoFCou: FMM=F IPFlag=           0 FMFlag=           0 FMFlg1=           0
         NFxFlg=           0 DoJE=F BraDBF=F KetDBF=F FulRan=T
         wScrn=  0.000000 ICntrl=       600 IOpCl=  0 I1Cent=           0 NGrid=           0
         NMat0=    1 NMatS0=  44850 NMatT0=    0 NMatD0=    1 NMtDS0=    0 NMtDT0=    0
 Petite list used in FoFCou.
 Closed shell SCF:
 Using DIIS extrapolation, IDIIS=  1040.
 NGot= 26843545600 LenX= 26337065890 LenY= 26336946424
 Requested convergence on RMS density matrix=1.00D-08 within 128 cycles.
 Requested convergence on MAX density matrix=1.00D-06.
 Requested convergence on             energy=1.00D-06.
 No special actions if energy rises.

 Cycle   1  Pass 1  IDiag  1:
 E= -209.142998260104    
 DIIS: error= 3.40D-02 at cycle   1 NSaved=   1.
 NSaved= 1 IEnMin= 1 EnMin= -209.142998260104     IErMin= 1 ErrMin= 3.40D-02
 ErrMax= 3.40D-02  0.00D+00 EMaxC= 1.00D-01 BMatC= 2.74D-01 BMatP= 2.74D-01
 IDIUse=3 WtCom= 6.60D-01 WtEn= 3.40D-01
 Coeff-Com:  0.100D+01
 Coeff-En:   0.100D+01
 Coeff:      0.100D+01
 Gap=     0.347 Goal=   None    Shift=    0.000
 GapD=    0.347 DampG=1.000 DampE=0.500 DampFc=0.5000 IDamp=-1.
 Damping current iteration by 5.00D-01
 RMSDP=1.67D-03 MaxDP=1.56D-01              OVMax= 8.88D-02

 Cycle   2  Pass 1  IDiag  1:
 E= -209.167993678351     Delta-E=       -0.024995418247 Rises=F Damp=T
 DIIS: error= 1.60D-02 at cycle   2 NSaved=   2.
 NSaved= 2 IEnMin= 2 EnMin= -209.167993678351     IErMin= 2 ErrMin= 1.60D-02
 ErrMax= 1.60D-02  0.00D+00 EMaxC= 1.00D-01 BMatC= 5.69D-02 BMatP= 2.74D-01
 IDIUse=3 WtCom= 8.40D-01 WtEn= 1.60D-01
 Coeff-Com: -0.665D+00 0.167D+01
 Coeff-En:   0.000D+00 0.100D+01
 Coeff:     -0.559D+00 0.156D+01
 Gap=     0.326 Goal=   None    Shift=    0.000
 RMSDP=7.75D-04 MaxDP=6.82D-02 DE=-2.50D-02 OVMax= 5.99D-02

 Cycle   3  Pass 1  IDiag  1:
 E= -209.183549278966     Delta-E=       -0.015555600615 Rises=F Damp=F
 DIIS: error= 8.09D-03 at cycle   3 NSaved=   3.
 NSaved= 3 IEnMin= 3 EnMin= -209.183549278966     IErMin= 3 ErrMin= 8.09D-03
 ErrMax= 8.09D-03  0.00D+00 EMaxC= 1.00D-01 BMatC= 1.34D-02 BMatP= 5.69D-02
 IDIUse=3 WtCom= 9.19D-01 WtEn= 8.09D-02
 Coeff-Com: -0.385D+00 0.842D+00 0.544D+00
 Coeff-En:   0.000D+00 0.000D+00 0.100D+01
 Coeff:     -0.354D+00 0.773D+00 0.581D+00
 Gap=     0.323 Goal=   None    Shift=    0.000
 RMSDP=2.01D-04 MaxDP=1.20D-02 DE=-1.56D-02 OVMax= 4.37D-02

 Cycle   4  Pass 1  IDiag  1:
 E= -209.192772748459     Delta-E=       -0.009223469493 Rises=F Damp=F
 DIIS: error= 1.94D-03 at cycle   4 NSaved=   4.
 NSaved= 4 IEnMin= 4 EnMin= -209.192772748459     IErMin= 4 ErrMin= 1.94D-03
 ErrMax= 1.94D-03  0.00D+00 EMaxC= 1.00D-01 BMatC= 1.45D-03 BMatP= 1.34D-02
 IDIUse=3 WtCom= 9.81D-01 WtEn= 1.94D-02
 Coeff-Com: -0.185D+00 0.393D+00 0.343D+00 0.449D+00
 Coeff-En:   0.000D+00 0.000D+00 0.000D+00 0.100D+01
 Coeff:     -0.181D+00 0.386D+00 0.336D+00 0.459D+00
 Gap=     0.332 Goal=   None    Shift=    0.000
 RMSDP=5.88D-05 MaxDP=3.13D-03 DE=-9.22D-03 OVMax= 1.06D-02

 Cycle   5  Pass 1  IDiag  1:
 E= -209.193747402104     Delta-E=       -0.000974653645 Rises=F Damp=F
 DIIS: error= 2.66D-04 at cycle   5 NSaved=   5.
 NSaved= 5 IEnMin= 5 EnMin= -209.193747402104     IErMin= 5 ErrMin= 2.66D-04
 ErrMax= 2.66D-04  0.00D+00 EMaxC= 1.00D-01 BMatC= 3.29D-05 BMatP= 1.45D-03
 IDIUse=3 WtCom= 9.97D-01 WtEn= 2.66D-03
 Coeff-Com: -0.241D-01 0.500D-01 0.692D-01 0.180D+00 0.725D+00
 Coeff-En:   0.000D+00 0.000D+00 0.000D+00 0.000D+00 0.100D+01
 Coeff:     -0.240D-01 0.499D-01 0.690D-01 0.180D+00 0.726D+00
 Gap=     0.331 Goal=   None    Shift=    0.000
 RMSDP=1.50D-05 MaxDP=6.77D-04 DE=-9.75D-04 OVMax= 2.31D-03

 Cycle   6  Pass 1  IDiag  1:
 E= -209.193771530001     Delta-E=       -0.000024127897 Rises=F Damp=F
 DIIS: error= 1.23D-04 at cycle   6 NSaved=   6.
 NSaved= 6 IEnMin= 6 EnMin= -209.193771530001     IErMin= 6 ErrMin= 1.23D-04
 ErrMax= 1.23D-04  0.00D+00 EMaxC= 1.00D-01 BMatC= 4.26D-06 BMatP= 3.29D-05
 IDIUse=3 WtCom= 9.99D-01 WtEn= 1.23D-03
 Coeff-Com:  0.157D-01-0.339D-01-0.149D-01 0.153D-01 0.325D+00 0.693D+00
 Coeff-En:   0.000D+00 0.000D+00 0.000D+00 0.000D+00 0.000D+00 0.100D+01
 Coeff:      0.157D-01-0.339D-01-0.149D-01 0.153D-01 0.325D+00 0.693D+00
 Gap=     0.331 Goal=   None    Shift=    0.000
 RMSDP=6.76D-06 MaxDP=3.08D-04 DE=-2.41D-05 OVMax= 9.94D-04

 Cycle   7  Pass 1  IDiag  1:
 E= -209.193775904249     Delta-E=       -0.000004374248 Rises=F Damp=F
 DIIS: error= 4.01D-05 at cycle   7 NSaved=   7.
 NSaved= 7 IEnMin= 7 EnMin= -209.193775904249     IErMin= 7 ErrMin= 4.01D-05
 ErrMax= 4.01D-05  0.00D+00 EMaxC= 1.00D-01 BMatC= 3.64D-07 BMatP= 4.26D-06
 IDIUse=1 WtCom= 1.00D+00 WtEn= 0.00D+00
 Coeff-Com:  0.744D-02-0.157D-01-0.116D-01-0.220D-01 0.131D-01 0.185D+00
 Coeff-Com:  0.843D+00
 Coeff:      0.744D-02-0.157D-01-0.116D-01-0.220D-01 0.131D-01 0.185D+00
 Coeff:      0.843D+00
 Gap=     0.331 Goal=   None    Shift=    0.000
 RMSDP=2.41D-06 MaxDP=1.17D-04 DE=-4.37D-06 OVMax= 2.71D-04

 Cycle   8  Pass 1  IDiag  1:
 E= -209.193776366245     Delta-E=       -0.000000461996 Rises=F Damp=F
 DIIS: error= 6.10D-06 at cycle   8 NSaved=   8.
 NSaved= 8 IEnMin= 8 EnMin= -209.193776366245     IErMin= 8 ErrMin= 6.10D-06
 ErrMax= 6.10D-06  0.00D+00 EMaxC= 1.00D-01 BMatC= 1.78D-08 BMatP= 3.64D-07
 IDIUse=1 WtCom= 1.00D+00 WtEn= 0.00D+00
 Coeff-Com: -0.939D-03 0.204D-02 0.712D-03-0.442D-02-0.227D-01-0.507D-01
 Coeff-Com:  0.393D-01 0.104D+01
 Coeff:     -0.939D-03 0.204D-02 0.712D-03-0.442D-02-0.227D-01-0.507D-01
 Coeff:      0.393D-01 0.104D+01
 Gap=     0.331 Goal=   None    Shift=    0.000
 RMSDP=6.96D-07 MaxDP=2.94D-05 DE=-4.62D-07 OVMax= 1.24D-04

 Cycle   9  Pass 1  IDiag  1:
 E= -209.193776396370     Delta-E=       -0.000000030125 Rises=F Damp=F
 DIIS: error= 2.76D-06 at cycle   9 NSaved=   9.
 NSaved= 9 IEnMin= 9 EnMin= -209.193776396370     IErMin= 9 ErrMin= 2.76D-06
 ErrMax= 2.76D-06  0.00D+00 EMaxC= 1.00D-01 BMatC= 1.43D-09 BMatP= 1.78D-08
 IDIUse=1 WtCom= 1.00D+00 WtEn= 0.00D+00
 Coeff-Com: -0.504D-03 0.109D-02 0.635D-03-0.299D-03-0.517D-02-0.215D-01
 Coeff-Com: -0.367D-01 0.308D+00 0.754D+00
 Coeff:     -0.504D-03 0.109D-02 0.635D-03-0.299D-03-0.517D-02-0.215D-01
 Coeff:     -0.367D-01 0.308D+00 0.754D+00
 Gap=     0.331 Goal=   None    Shift=    0.000
 RMSDP=1.14D-07 MaxDP=4.00D-06 DE=-3.01D-08 OVMax= 1.89D-05

 Cycle  10  Pass 1  IDiag  1:
 E= -209.193776398000     Delta-E=       -0.000000001631 Rises=F Damp=F
 DIIS: error= 6.03D-07 at cycle  10 NSaved=  10.
 NSaved=10 IEnMin=10 EnMin= -209.193776398000     IErMin=10 ErrMin= 6.03D-07
 ErrMax= 6.03D-07  0.00D+00 EMaxC= 1.00D-01 BMatC= 1.22D-10 BMatP= 1.43D-09
 IDIUse=1 WtCom= 1.00D+00 WtEn= 0.00D+00
 Coeff-Com: -0.703D-04 0.145D-03 0.164D-03 0.446D-03 0.112D-02-0.162D-02
 Coeff-Com: -0.189D-01-0.236D-01 0.186D+00 0.856D+00
 Coeff:     -0.703D-04 0.145D-03 0.164D-03 0.446D-03 0.112D-02-0.162D-02
 Coeff:     -0.189D-01-0.236D-01 0.186D+00 0.856D+00
 Gap=     0.331 Goal=   None    Shift=    0.000
 RMSDP=4.26D-08 MaxDP=1.25D-06 DE=-1.63D-09 OVMax= 5.39D-06

 Cycle  11  Pass 1  IDiag  1:
 E= -209.193776398155     Delta-E=       -0.000000000155 Rises=F Damp=F
 DIIS: error= 1.23D-07 at cycle  11 NSaved=  11.
 NSaved=11 IEnMin=11 EnMin= -209.193776398155     IErMin=11 ErrMin= 1.23D-07
 ErrMax= 1.23D-07  0.00D+00 EMaxC= 1.00D-01 BMatC= 4.57D-12 BMatP= 1.22D-10
 IDIUse=1 WtCom= 1.00D+00 WtEn= 0.00D+00
 Coeff-Com:  0.174D-04-0.384D-04-0.623D-05 0.851D-04 0.594D-03 0.716D-03
 Coeff-Com: -0.158D-02-0.192D-01-0.705D-02 0.143D+00 0.883D+00
 Coeff:      0.174D-04-0.384D-04-0.623D-05 0.851D-04 0.594D-03 0.716D-03
 Coeff:     -0.158D-02-0.192D-01-0.705D-02 0.143D+00 0.883D+00
 Gap=     0.331 Goal=   None    Shift=    0.000
 RMSDP=9.14D-09 MaxDP=2.81D-07 DE=-1.55D-10 OVMax= 8.78D-07

 SCF Done:  E(RCAM-B3LYP) =  -209.193776398     A.U. after   11 cycles
            NFock= 11  Conv=0.91D-08     -V/T= 2.0061
 KE= 2.079280195155D+02 PE=-7.318169054493D+02 EE= 1.933180235057D+02
 Leave Link  502 at Thu Apr  9 11:27:39 2020, MaxMem= 26843545600 cpu:             452.8 elap:              17.3
 (Enter /sob/g16/l801.exe)
 DoSCS=F DFT=T ScalE2(SS,OS)=  1.000000  1.000000
 Range of M.O.s used for correlation:     1   299
 NBasis=   299 NAE=    16 NBE=    16 NFC=     0 NFV=     0
 NROrb=    299 NOA=    16 NOB=    16 NVA=   283 NVB=   283

 **** Warning!!: The largest alpha MO coefficient is  0.41167999D+02

 Leave Link  801 at Thu Apr  9 11:27:39 2020, MaxMem= 26843545600 cpu:               1.0 elap:               0.1
 (Enter /sob/g16/l1002.exe)
 Minotr:  Closed shell wavefunction.
          Direct CPHF calculation.
          Differentiating once with respect to electric field.
                with respect to dipole field.
          Electric field/nuclear overlap derivatives assumed to be zero.
          Requested convergence is 1.0D-08 RMS, and 1.0D-07 maximum.
          NewPWx=F KeepS1=T KeepF1=T KeepIn=T MapXYZ=F SortEE=F KeepMc=T.
         4174 words used for storage of precomputed grid.
 Keep R1 and R3 ints in memory in symmetry-blocked form, NReq=3023933674.
 FoFCou: FMM=F IPFlag=           0 FMFlag=           0 FMFlg1=           0
         NFxFlg=           0 DoJE=F BraDBF=F KetDBF=F FulRan=T
         wScrn=  0.000000 ICntrl=       600 IOpCl=  0 I1Cent=           0 NGrid=           0
         NMat0=    1 NMatS0=  44850 NMatT0=    0 NMatD0=    1 NMtDS0=    0 NMtDT0=    0
 Petite list used in FoFCou.
 Two-electron integral symmetry used by symmetrizing perturbed Fock matrices.
          MDV=   26843545600 using IRadAn=       4.
          Solving linear equations separately, MaxMat=       0.
          Doing perturbations at frequencies    0.000000    0.044236    0.101252    0.088473    0.202504
          There are    15 degrees of freedom in the 1st order CPHF.  IDoFFX=0 NUNeed=    15.
 LinEq1:  Iter=  0 NonCon=    15 RMS=9.66D-02 Max=4.61D+00 NDo=    15
 AX will form    15 AO Fock derivatives at one time.
 LinEq1:  Iter=  1 NonCon=    15 RMS=6.12D-02 Max=1.25D+00 NDo=    15
 LinEq1:  Iter=  2 NonCon=    15 RMS=4.49D-02 Max=1.61D+00 NDo=    15
 LinEq1:  Iter=  3 NonCon=    15 RMS=1.79D-02 Max=3.55D-01 NDo=    15
 LinEq1:  Iter=  4 NonCon=    15 RMS=7.43D-03 Max=1.58D-01 NDo=    15
 LinEq1:  Iter=  5 NonCon=    15 RMS=3.56D-03 Max=1.08D-01 NDo=    15
 LinEq1:  Iter=  6 NonCon=    15 RMS=2.66D-03 Max=7.87D-02 NDo=    15
 LinEq1:  Iter=  7 NonCon=    15 RMS=1.54D-03 Max=5.29D-02 NDo=    15
 LinEq1:  Iter=  8 NonCon=    15 RMS=5.59D-04 Max=1.68D-02 NDo=    15
 LinEq1:  Iter=  9 NonCon=    15 RMS=1.97D-04 Max=6.55D-03 NDo=    15
 LinEq1:  Iter= 10 NonCon=    14 RMS=1.07D-04 Max=3.02D-03 NDo=    15
 LinEq1:  Iter= 11 NonCon=    11 RMS=4.18D-05 Max=1.05D-03 NDo=    14
 LinEq1:  Iter= 12 NonCon=    11 RMS=1.11D-05 Max=3.67D-04 NDo=    11
 LinEq1:  Iter= 13 NonCon=    11 RMS=2.89D-06 Max=8.52D-05 NDo=    11
 LinEq1:  Iter= 14 NonCon=     8 RMS=6.84D-07 Max=1.72D-05 NDo=    11
 LinEq1:  Iter= 15 NonCon=     4 RMS=1.79D-07 Max=4.78D-06 NDo=     8
 LinEq1:  Iter= 16 NonCon=     2 RMS=4.27D-08 Max=9.59D-07 NDo=     4
 LinEq1:  Iter= 17 NonCon=     2 RMS=1.09D-08 Max=2.53D-07 NDo=     2
 LinEq1:  Iter= 18 NonCon=     0 RMS=2.40D-09 Max=5.32D-08 NDo=     2
 Linear equations converged to 1.000D-08 1.000D-07 after    18 iterations.
 FullF1:  Do perturbations      1 to      15.
 SCF Polarizability for W=    0.000000:
                1             2             3 
      1  0.442188D+02
      2 -0.288559D+01  0.442055D+02
      3  0.000000D+00  0.000000D+00  0.299575D+02
 Isotropic polarizability for W=    0.000000       39.46 Bohr**3.
 SCF Polarizability for W=    0.044236:
                1             2             3 
      1  0.446337D+02
      2 -0.296174D+01  0.446337D+02
      3  0.000000D+00  0.000000D+00  0.301563D+02
 Isotropic polarizability for W=    0.044236       39.81 Bohr**3.
 SCF Polarizability for W=    0.101252:
                1             2             3 
      1  0.465620D+02
      2 -0.333242D+01  0.466326D+02
      3  0.000000D+00  0.000000D+00  0.310647D+02
 Isotropic polarizability for W=    0.101252       41.42 Bohr**3.
 SCF Polarizability for W=    0.088473:
                1             2             3 
      1  0.459673D+02
      2 -0.321522D+01  0.460145D+02
      3  0.000000D+00  0.000000D+00  0.307870D+02
 Isotropic polarizability for W=    0.088473       40.92 Bohr**3.
 SCF Polarizability for W=    0.202504:
                1             2             3 
      1  0.586203D+02
      2 -0.599145D+01  0.592609D+02
      3  0.000000D+00  0.000000D+00  0.380293D+02
 Isotropic polarizability for W=    0.202504       51.97 Bohr**3.
 SCF Static Hyperpolarizability:
 K=  1 block:
                1 
      1  0.436298D+02
 K=  2 block:
                1             2 
      1  0.546364D+01
      2  0.412778D+02  0.615859D+02
 K=  3 block:
                1             2             3 
      1  0.000000D+00
      2  0.000000D+00  0.000000D+00
      3 -0.109822D+02  0.469395D+01  0.000000D+00
 SCF Beta(-W,W;0) for W=    0.044236:
 K=  1 block:
                1             2             3 
      1  0.465411D+02
      2  0.571111D+01  0.436725D+02
      3  0.000000D+00  0.000000D+00 -0.113414D+02
 K=  2 block:
                1             2             3 
      1  0.587391D+01
      2  0.435729D+02  0.640049D+02
      3  0.000000D+00  0.000000D+00  0.508113D+01
 K=  3 block:
                1             2             3 
      1  0.000000D+00
      2  0.000000D+00  0.000000D+00
      3 -0.113721D+02  0.501271D+01  0.000000D+00
 SCF Beta(W,W;-2W) for W=    0.044236:
 K=  1 block:
                1             2             3 
      1  0.532520D+02
      2  0.666578D+01  0.487696D+02
      3  0.000000D+00  0.000000D+00 -0.122483D+02
 K=  2 block:
                1             2             3 
      1  0.614507D+01
      2  0.490415D+02  0.694493D+02
      3  0.000000D+00  0.000000D+00  0.569132D+01
 K=  3 block:
                1             2             3 
      1  0.000000D+00
      2  0.000000D+00  0.000000D+00
      3 -0.121495D+02  0.594783D+01  0.000000D+00
 SCF Beta(-W,W;0) for W=    0.101252:
 K=  1 block:
                1             2             3 
      1  0.624874D+02
      2  0.721215D+01  0.566343D+02
      3  0.000000D+00  0.000000D+00 -0.130453D+02
 K=  2 block:
                1             2             3 
      1  0.828948D+01
      2  0.560885D+02  0.767163D+02
      3  0.000000D+00  0.000000D+00  0.756409D+01
 K=  3 block:
                1             2             3 
      1  0.000000D+00
      2  0.000000D+00  0.000000D+00
      3 -0.132848D+02  0.684634D+01  0.000000D+00
 SCF Beta(W,W;-2W) for W=    0.101252:
 K=  1 block:
                1             2             3 
      1  0.172957D+03
      2  0.295494D+02  0.151030D+03
      3  0.000000D+00  0.000000D+00 -0.182807D+02
 K=  2 block:
                1             2             3 
      1  0.264056D+02
      2  0.139117D+03  0.155346D+03
      3  0.000000D+00  0.000000D+00  0.206292D+02
 K=  3 block:
                1             2             3 
      1  0.000000D+00
      2  0.000000D+00  0.000000D+00
      3 -0.378519D+01  0.600911D+02  0.000000D+00
 SCF Beta(-W,W;0) for W=    0.088473:
 K=  1 block:
                1             2             3 
      1  0.571143D+02
      2  0.667748D+01  0.522924D+02
      3  0.000000D+00  0.000000D+00 -0.125177D+02
 K=  2 block:
                1             2             3 
      1  0.744225D+01
      2  0.518781D+02  0.725183D+02
      3  0.000000D+00  0.000000D+00  0.665725D+01
 K=  3 block:
                1             2             3 
      1  0.000000D+00
      2  0.000000D+00  0.000000D+00
      3 -0.126796D+02  0.621183D+01  0.000000D+00
 SCF Beta(-W,W;0) for W=    0.202504:
 K=  1 block:
                1             2             3 
      1  0.326528D+03
      2  0.660582D+02  0.258055D+03
      3  0.000000D+00  0.000000D+00  0.221759D+02
 K=  2 block:
                1             2             3 
      1  0.929608D+02
      2  0.272166D+03  0.264553D+03
      3  0.000000D+00  0.000000D+00  0.407094D+03
 K=  3 block:
                1             2             3 
      1  0.000000D+00
      2  0.000000D+00  0.000000D+00
      3  0.174111D+02  0.949451D+02  0.000000D+00
 End of Minotr F.D. properties on file   721 Mask=      31 NFrqRd=     3 NDeriv=     1 ND12= 1 LenFil=     140:
 Frequencies=    0.000000    0.044236    0.101252
 Property number 1 -- Alpha(-w,w) frequency  1    0.000000:
                 1             2             3 
      1   0.442188D+02 -0.288559D+01  0.000000D+00
      2  -0.288559D+01  0.442055D+02  0.000000D+00
      3   0.000000D+00  0.000000D+00  0.299575D+02
 Property number 1 -- Alpha(-w,w) frequency  2    0.044236:
                 1             2             3 
      1   0.446337D+02 -0.296174D+01  0.000000D+00
      2  -0.296174D+01  0.446337D+02  0.000000D+00
      3   0.000000D+00  0.000000D+00  0.301563D+02
 Property number 1 -- Alpha(-w,w) frequency  3    0.101252:
                 1             2             3 
      1   0.465620D+02 -0.333242D+01  0.000000D+00
      2  -0.333242D+01  0.466326D+02  0.000000D+00
      3   0.000000D+00  0.000000D+00  0.310647D+02
 Property number 5 -- Beta(-w,w,0) frequency  1    0.000000:
                 1 
      1   0.436298D+02
      2   0.546364D+01
      3   0.412778D+02
      4   0.000000D+00
      5   0.000000D+00
      6  -0.109822D+02
      7   0.546364D+01
      8   0.412778D+02
      9   0.615859D+02
     10   0.000000D+00
     11   0.000000D+00
     12   0.469395D+01
     13   0.000000D+00
     14   0.000000D+00
     15   0.000000D+00
     16  -0.109822D+02
     17   0.469395D+01
     18   0.000000D+00
 Property number 5 -- Beta(-w,w,0) frequency  2    0.044236:
                 1 
      1   0.465411D+02
      2   0.571111D+01
      3   0.436725D+02
      4   0.000000D+00
      5   0.000000D+00
      6  -0.113414D+02
      7   0.587391D+01
      8   0.435729D+02
      9   0.640049D+02
     10   0.000000D+00
     11   0.000000D+00
     12   0.508113D+01
     13   0.000000D+00
     14   0.000000D+00
     15   0.000000D+00
     16  -0.113721D+02
     17   0.501271D+01
     18   0.000000D+00
 Property number 5 -- Beta(-w,w,0) frequency  3    0.101252:
                 1 
      1   0.624874D+02
      2   0.721215D+01
      3   0.566343D+02
      4   0.000000D+00
      5   0.000000D+00
      6  -0.130453D+02
      7   0.828948D+01
      8   0.560885D+02
      9   0.767163D+02
     10   0.000000D+00
     11   0.000000D+00
     12   0.756409D+01
     13   0.000000D+00
     14   0.000000D+00
     15   0.000000D+00
     16  -0.132848D+02
     17   0.684634D+01
     18   0.000000D+00
 Property number 6 -- Beta(w,w,-2w) frequency  1    0.000000:
                 1 
      1   0.436298D+02
      2   0.546364D+01
      3   0.412778D+02
      4   0.000000D+00
      5   0.000000D+00
      6  -0.109822D+02
      7   0.546364D+01
      8   0.412778D+02
      9   0.615859D+02
     10   0.000000D+00
     11   0.000000D+00
     12   0.469395D+01
     13   0.000000D+00
     14   0.000000D+00
     15   0.000000D+00
     16  -0.109822D+02
     17   0.469395D+01
     18   0.000000D+00
 Property number 6 -- Beta(w,w,-2w) frequency  2    0.044236:
                 1 
      1   0.532520D+02
      2   0.666578D+01
      3   0.487696D+02
      4   0.000000D+00
      5   0.000000D+00
      6  -0.122483D+02
      7   0.614507D+01
      8   0.490415D+02
      9   0.694493D+02
     10   0.000000D+00
     11   0.000000D+00
     12   0.569132D+01
     13   0.000000D+00
     14   0.000000D+00
     15   0.000000D+00
     16  -0.121495D+02
     17   0.594783D+01
     18   0.000000D+00
 Property number 6 -- Beta(w,w,-2w) frequency  3    0.101252:
                 1 
      1   0.172957D+03
      2   0.295494D+02
      3   0.151030D+03
      4   0.000000D+00
      5   0.000000D+00
      6  -0.182807D+02
      7   0.264056D+02
      8   0.139117D+03
      9   0.155346D+03
     10   0.000000D+00
     11   0.000000D+00
     12   0.206292D+02
     13   0.000000D+00
     14   0.000000D+00
     15   0.000000D+00
     16  -0.378519D+01
     17   0.600911D+02
     18   0.000000D+00
 End of Minotr F.D. properties file   722 does not exist.
 End of Minotr F.D. properties file   788 does not exist.
 Leave Link 1002 at Thu Apr  9 11:28:55 2020, MaxMem= 26843545600 cpu:            2727.5 elap:              75.8
 (Enter /sob/g16/l601.exe)
 Copying SCF densities to generalized density rwf, IOpCl= 0 IROHF=0.

 **********************************************************************

            Population analysis using the SCF density.

 **********************************************************************

 Orbital symmetries:
       Occupied  (A') (A') (A') (A') (A') (A') (A') (A') (A') (A')
                 (A") (A') (A') (A") (A') (A")
       Virtual   (A') (A') (A') (A") (A') (A") (A') (A') (A") (A')
                 (A") (A') (A') (A') (A') (A") (A') (A') (A") (A')
                 (A') (A") (A") (A') (A') (A') (A') (A') (A") (A')
                 (A") (A') (A') (A") (A') (A") (A') (A') (A") (A')
                 (A') (A") (A') (A') (A") (A') (A") (A') (A") (A')
                 (A') (A') (A') (A") (A') (A') (A') (A') (A") (A')
                 (A') (A') (A") (A") (A') (A') (A") (A') (A") (A')
                 (A") (A') (A') (A") (A") (A') (A") (A') (A") (A')
                 (A') (A') (A") (A') (A') (A') (A") (A') (A") (A')
                 (A") (A") (A') (A') (A") (A') (A") (A') (A') (A")
                 (A') (A') (A") (A') (A") (A') (A') (A') (A") (A")
                 (A') (A') (A') (A') (A") (A") (A') (A") (A') (A')
                 (A') (A") (A") (A') (A") (A') (A') (A") (A') (A')
                 (A") (A') (A') (A") (A') (A') (A") (A') (A") (A')
                 (A") (A') (A') (A") (A') (A") (A') (A') (A") (A')
                 (A") (A') (A") (A') (A") (A') (A") (A') (A') (A')
                 (A') (A") (A') (A") (A') (A') (A') (A") (A") (A')
                 (A') (A') (A') (A") (A') (A') (A') (A") (A') (A")
                 (A') (A') (A") (A") (A') (A") (A") (A') (A") (A')
                 (A") (A') (A') (A") (A') (A") (A') (A') (A") (A')
                 (A') (A") (A") (A') (A') (A") (A') (A") (A') (A")
                 (A') (A') (A') (A") (A") (A') (A') (A") (A') (A')
                 (A") (A') (A') (A") (A') (A') (A") (A') (A') (A")
                 (A') (A") (A") (A') (A') (A") (A') (A') (A") (A')
                 (A") (A') (A') (A") (A') (A") (A') (A") (A') (A')
                 (A") (A') (A") (A") (A') (A') (A') (A") (A') (A')
                 (A') (A") (A') (A") (A') (A') (A') (A') (A") (A')
                 (A") (A") (A') (A') (A") (A') (A') (A') (A') (A')
                 (A') (A') (A')
 The electronic state is 1-A'.
 Alpha  occ. eigenvalues --  -19.17401 -14.42890 -10.35060 -10.28731  -1.12327
 Alpha  occ. eigenvalues --   -1.01280  -0.80392  -0.67469  -0.62603  -0.53492
 Alpha  occ. eigenvalues --   -0.53117  -0.49021  -0.47151  -0.45337  -0.33140
 Alpha  occ. eigenvalues --   -0.33105
 Alpha virt. eigenvalues --    0.00018   0.01859   0.02965   0.03546   0.04578
 Alpha virt. eigenvalues --    0.05553   0.06535   0.08243   0.08290   0.09093
 Alpha virt. eigenvalues --    0.09460   0.10243   0.11643   0.11906   0.13059
 Alpha virt. eigenvalues --    0.14495   0.15368   0.15763   0.16323   0.19642
 Alpha virt. eigenvalues --    0.20048   0.20701   0.22010   0.22463   0.23714
 Alpha virt. eigenvalues --    0.25178   0.25647   0.27856   0.27881   0.28500
 Alpha virt. eigenvalues --    0.28883   0.29582   0.31090   0.32140   0.33290
 Alpha virt. eigenvalues --    0.33491   0.33725   0.34301   0.35445   0.36351
 Alpha virt. eigenvalues --    0.37416   0.37602   0.38931   0.39911   0.41456
 Alpha virt. eigenvalues --    0.42627   0.43091   0.43677   0.44990   0.45082
 Alpha virt. eigenvalues --    0.46116   0.47673   0.49590   0.50276   0.53029
 Alpha virt. eigenvalues --    0.54858   0.57219   0.59601   0.59846   0.60979
 Alpha virt. eigenvalues --    0.65218   0.66784   0.67069   0.69620   0.70517
 Alpha virt. eigenvalues --    0.71668   0.71705   0.73280   0.76778   0.77566
 Alpha virt. eigenvalues --    0.77576   0.77744   0.79728   0.81350   0.83629
 Alpha virt. eigenvalues --    0.83973   0.84725   0.85571   0.86497   0.88236
 Alpha virt. eigenvalues --    0.89088   0.92260   0.92398   0.92615   0.93294
 Alpha virt. eigenvalues --    0.94222   0.95164   0.96655   0.97990   0.98280
 Alpha virt. eigenvalues --    0.98983   1.01611   1.02963   1.04160   1.05187
 Alpha virt. eigenvalues --    1.06801   1.07541   1.08625   1.14649   1.15142
 Alpha virt. eigenvalues --    1.15390   1.16386   1.17526   1.19018   1.20200
 Alpha virt. eigenvalues --    1.24175   1.25478   1.26333   1.27457   1.28854
 Alpha virt. eigenvalues --    1.29918   1.32095   1.33373   1.36903   1.37386
 Alpha virt. eigenvalues --    1.40000   1.42119   1.42900   1.44188   1.45992
 Alpha virt. eigenvalues --    1.46391   1.47701   1.51717   1.52587   1.53815
 Alpha virt. eigenvalues --    1.56226   1.58525   1.59639   1.61046   1.64048
 Alpha virt. eigenvalues --    1.66263   1.70318   1.72073   1.74883   1.77957
 Alpha virt. eigenvalues --    1.79000   1.80090   1.85405   1.87905   1.88509
 Alpha virt. eigenvalues --    1.90383   1.92024   1.94222   1.99729   2.01904
 Alpha virt. eigenvalues --    2.02894   2.03351   2.07219   2.14069   2.20251
 Alpha virt. eigenvalues --    2.21961   2.21964   2.24349   2.27321   2.29769
 Alpha virt. eigenvalues --    2.29791   2.33401   2.33893   2.35998   2.38057
 Alpha virt. eigenvalues --    2.43945   2.46060   2.47094   2.51834   2.53521
 Alpha virt. eigenvalues --    2.54454   2.58780   2.63380   2.70474   2.73602
 Alpha virt. eigenvalues --    2.76493   2.81613   2.93145   2.93537   3.02234
 Alpha virt. eigenvalues --    3.07293   3.09015   3.12033   3.16901   3.20393
 Alpha virt. eigenvalues --    3.27325   3.29870   3.31685   3.35874   3.36749
 Alpha virt. eigenvalues --    3.37981   3.39941   3.40722   3.48765   3.50981
 Alpha virt. eigenvalues --    3.56012   3.56861   3.59849   3.64951   3.65596
 Alpha virt. eigenvalues --    3.71503   3.73878   3.78347   3.78734   3.82564
 Alpha virt. eigenvalues --    3.85629   3.86086   3.87933   3.90309   3.94063
 Alpha virt. eigenvalues --    3.97177   3.98859   4.02421   4.02975   4.08739
 Alpha virt. eigenvalues --    4.08983   4.12176   4.18267   4.18669   4.26121
 Alpha virt. eigenvalues --    4.29135   4.31241   4.32435   4.34562   4.43690
 Alpha virt. eigenvalues --    4.49940   4.50943   4.54557   4.54762   4.56658
 Alpha virt. eigenvalues --    4.60945   4.65735   4.65956   4.72526   4.75137
 Alpha virt. eigenvalues --    4.77311   4.86781   4.87361   4.87371   4.88597
 Alpha virt. eigenvalues --    4.90262   4.99289   5.01763   5.01821   5.13632
 Alpha virt. eigenvalues --    5.18797   5.22746   5.28466   5.28766   5.32669
 Alpha virt. eigenvalues --    5.34450   5.35684   5.39295   5.41874   5.51494
 Alpha virt. eigenvalues --    5.53165   5.64353   5.72133   5.78550   5.79641
 Alpha virt. eigenvalues --    5.80758   5.90782   5.98693   5.98785   6.14380
 Alpha virt. eigenvalues --    6.22501   6.31305   6.35177   6.36390   6.40469
 Alpha virt. eigenvalues --    6.42506   6.46005   6.56404   6.59776   6.70696
 Alpha virt. eigenvalues --    6.78845   6.87135   6.92315   7.10920   7.17077
 Alpha virt. eigenvalues --    7.19025   7.37913   7.45445   7.51125  14.76503
 Alpha virt. eigenvalues --   15.89674  16.98275  17.98143
 Electronic spatial extent (au):  <R**2>=            280.4490
 Charge=             -0.0000 electrons
 Dipole moment (field-independent basis, Debye):
    X=             -0.8585    Y=              4.0047    Z=             -0.0000  Tot=              4.0956
 Quadrupole moment (field-independent basis, Debye-Ang):
   XX=            -22.0466   YY=            -26.6648   ZZ=            -25.2272
   XY=              2.2470   XZ=              0.0000   YZ=              0.0000
 Traceless Quadrupole moment (field-independent basis, Debye-Ang):
   XX=              2.5996   YY=             -2.0186   ZZ=             -0.5810
   XY=              2.2470   XZ=              0.0000   YZ=              0.0000
 Octapole moment (field-independent basis, Debye-Ang**2):
  XXX=              2.0049  YYY=             13.1656  ZZZ=             -0.0000  XYY=             -3.1535
  XXY=              2.9984  XXZ=             -0.0000  XZZ=             -0.1127  YZZ=             -1.7935
  YYZ=             -0.0000  XYZ=              0.0000
 Hexadecapole moment (field-independent basis, Debye-Ang**3):
 XXXX=           -187.2287 YYYY=           -133.5312 ZZZZ=            -32.2178 XXXY=             34.2065
 XXXZ=              0.0000 YYYX=             39.0610 YYYZ=             -0.0000 ZZZX=              0.0000
 ZZZY=             -0.0000 XXYY=            -56.9560 XXZZ=            -37.7459 YYZZ=            -30.1923
 XXYZ=             -0.0000 YYXZ=              0.0000 ZZXY=             11.9956
 N-N= 1.213770860300D+02 E-N=-7.318168947730D+02  KE= 2.079280195155D+02
 Symmetry A'   KE= 1.987881058011D+02
 Symmetry A"   KE= 9.139913714439D+00
  Exact polarizability:  44.219  -2.886  44.206   0.000   0.000  29.957
 Approx polarizability:  44.472  -1.535  53.714  -0.000   0.000  34.983
 No NMR shielding tensors so no spin-rotation constants.
 Leave Link  601 at Thu Apr  9 11:28:56 2020, MaxMem= 26843545600 cpu:              11.5 elap:               0.4
 (Enter /sob/g16/l106.exe)
 NDeriv=      3 NFrqRd=  3 NDerD0=      0 MskFDP=      31 MskDFD=      31 MskDF0=       0
 At 1st pt F.D. properties on file   721 Mask=      31 NFrqRd=     3 NDeriv=     1 ND12= 1 LenFil=     140:
 Frequencies=    0.000000    0.044236    0.101252
 Property number 1 -- Alpha(-w,w) frequency  1    0.000000:
                 1             2             3 
      1   0.442188D+02 -0.288559D+01  0.000000D+00
      2  -0.288559D+01  0.442055D+02  0.000000D+00
      3   0.000000D+00  0.000000D+00  0.299575D+02
 Property number 1 -- Alpha(-w,w) frequency  2    0.044236:
                 1             2             3 
      1   0.446337D+02 -0.296174D+01  0.000000D+00
      2  -0.296174D+01  0.446337D+02  0.000000D+00
      3   0.000000D+00  0.000000D+00  0.301563D+02
 Property number 1 -- Alpha(-w,w) frequency  3    0.101252:
                 1             2             3 
      1   0.465620D+02 -0.333242D+01  0.000000D+00
      2  -0.333242D+01  0.466326D+02  0.000000D+00
      3   0.000000D+00  0.000000D+00  0.310647D+02
 Property number 5 -- Beta(-w,w,0) frequency  1    0.000000:
                 1 
      1   0.436298D+02
      2   0.546364D+01
      3   0.412778D+02
      4   0.000000D+00
      5   0.000000D+00
      6  -0.109822D+02
      7   0.546364D+01
      8   0.412778D+02
      9   0.615859D+02
     10   0.000000D+00
     11   0.000000D+00
     12   0.469395D+01
     13   0.000000D+00
     14   0.000000D+00
     15   0.000000D+00
     16  -0.109822D+02
     17   0.469395D+01
     18   0.000000D+00
 Property number 5 -- Beta(-w,w,0) frequency  2    0.044236:
                 1 
      1   0.465411D+02
      2   0.571111D+01
      3   0.436725D+02
      4   0.000000D+00
      5   0.000000D+00
      6  -0.113414D+02
      7   0.587391D+01
      8   0.435729D+02
      9   0.640049D+02
     10   0.000000D+00
     11   0.000000D+00
     12   0.508113D+01
     13   0.000000D+00
     14   0.000000D+00
     15   0.000000D+00
     16  -0.113721D+02
     17   0.501271D+01
     18   0.000000D+00
 Property number 5 -- Beta(-w,w,0) frequency  3    0.101252:
                 1 
      1   0.624874D+02
      2   0.721215D+01
      3   0.566343D+02
      4   0.000000D+00
      5   0.000000D+00
      6  -0.130453D+02
      7   0.828948D+01
      8   0.560885D+02
      9   0.767163D+02
     10   0.000000D+00
     11   0.000000D+00
     12   0.756409D+01
     13   0.000000D+00
     14   0.000000D+00
     15   0.000000D+00
     16  -0.132848D+02
     17   0.684634D+01
     18   0.000000D+00
 Property number 6 -- Beta(w,w,-2w) frequency  1    0.000000:
                 1 
      1   0.436298D+02
      2   0.546364D+01
      3   0.412778D+02
      4   0.000000D+00
      5   0.000000D+00
      6  -0.109822D+02
      7   0.546364D+01
      8   0.412778D+02
      9   0.615859D+02
     10   0.000000D+00
     11   0.000000D+00
     12   0.469395D+01
     13   0.000000D+00
     14   0.000000D+00
     15   0.000000D+00
     16  -0.109822D+02
     17   0.469395D+01
     18   0.000000D+00
 Property number 6 -- Beta(w,w,-2w) frequency  2    0.044236:
                 1 
      1   0.532520D+02
      2   0.666578D+01
      3   0.487696D+02
      4   0.000000D+00
      5   0.000000D+00
      6  -0.122483D+02
      7   0.614507D+01
      8   0.490415D+02
      9   0.694493D+02
     10   0.000000D+00
     11   0.000000D+00
     12   0.569132D+01
     13   0.000000D+00
     14   0.000000D+00
     15   0.000000D+00
     16  -0.121495D+02
     17   0.594783D+01
     18   0.000000D+00
 Property number 6 -- Beta(w,w,-2w) frequency  3    0.101252:
                 1 
      1   0.172957D+03
      2   0.295494D+02
      3   0.151030D+03
      4   0.000000D+00
      5   0.000000D+00
      6  -0.182807D+02
      7   0.264056D+02
      8   0.139117D+03
      9   0.155346D+03
     10   0.000000D+00
     11   0.000000D+00
     12   0.206292D+02
     13   0.000000D+00
     14   0.000000D+00
     15   0.000000D+00
     16  -0.378519D+01
     17   0.600911D+02
     18   0.000000D+00
 At 1st pt F.D. properties file   722 does not exist.
 D2Numr ... symmetry will be used.
 Leave Link  106 at Thu Apr  9 11:28:56 2020, MaxMem= 26843545600 cpu:               1.5 elap:               0.1
 (Enter /sob/g16/l301.exe)
 Standard basis: Aug-CC-pVTZ (5D, 7F)
 Ernie: Thresh=  0.10000D-02 Tol=  0.10000D-05 Strict=F.
 Ernie:  12 primitive shells out of 175 were deleted.
 The following finite field(s) will be applied:
 An electric field of              0.0003  0.0000  0.0000
   299 basis functions,   423 primitive gaussians,   345 cartesian basis functions
    16 alpha electrons       16 beta electrons
       nuclear repulsion energy       121.3770860300 Hartrees.
 IExCor=20419 DFT=T Ex+Corr=CAM-B3LYP ExCW=0 ScaHFX=  1.000000
 ScaDFX=  1.000000  1.000000  1.000000  0.810000 ScalE2=  1.000000  1.000000
 IRadAn=      5 IRanWt=     -1 IRanGd=            0 ICorTp=0 IEmpDi=  4
 HFx  wShort=  0.000000 wLong=  0.330000 cFull=  0.190000 cShort=  0.000000 cLong=  0.460000
 DFx  wShort=  0.000000 wLong=  0.330000 cFull=  0.190000 cShort=  0.000000 cLong=  0.460000
 NAtoms=    9 NActive=    9 NUniq=    9 SFac= 1.00D+00 NAtFMM=   60 NAOKFM=F Big=F
 Integral buffers will be    131072 words long.
 Raffenetti 2 integral format.
 Two-electron integral symmetry is turned off.
 Leave Link  301 at Thu Apr  9 11:28:56 2020, MaxMem= 26843545600 cpu:               1.4 elap:               0.1
 (Enter /sob/g16/l302.exe)
 NPDir=0 NMtPBC=     1 NCelOv=     1 NCel=       1 NClECP=     1 NCelD=      1
         NCelK=      1 NCelE2=     1 NClLst=     1 CellRange=     0.0.
 One-electron integrals computed using PRISM.
 NBasis=   299 RedAO= T EigKep=  3.05D-05  NBF=   299
 NBsUse=   299 1.00D-06 EigRej= -1.00D+00 NBFU=   299
 Precomputing XC quadrature grid using
 IXCGrd= 4 IRadAn=           5 IRanWt=          -1 IRanGd=           0 AccXCQ= 0.00D+00.
 Generated NRdTot=       0 NPtTot=           0 NUsed=           0 NTot=          32
 NSgBfM=   345   345   345   345   345 MxSgAt=     9 MxSgA2=     9.
 Leave Link  302 at Thu Apr  9 11:28:56 2020, MaxMem= 26843545600 cpu:              10.9 elap:               0.3
 (Enter /sob/g16/l303.exe)
 DipDrv:  MaxL=1.
 The nuclear repulsion energy is now       121.3770860300 hartrees.
 Leave Link  303 at Thu Apr  9 11:28:56 2020, MaxMem= 26843545600 cpu:               1.4 elap:               0.1
 (Enter /sob/g16/l401.exe)
 Initial guess from the checkpoint file:  "/sob2/gauscr/Gau-2786.chk"
 B after Tr=     0.000000    0.000000    0.000000
         Rot=    1.000000    0.000000    0.000000    0.000000 Ang=   0.00 deg.
 Guess basis will be translated and rotated to current coordinates.
 JPrj=2 DoOrth=T DoCkMO=T.
 Leave Link  401 at Thu Apr  9 11:28:56 2020, MaxMem= 26843545600 cpu:               5.3 elap:               0.2
 (Enter /sob/g16/l502.exe)
 Keep R1 ints in memory in canonical form, NReq=2053137962.
 FoFCou: FMM=F IPFlag=           0 FMFlag=           0 FMFlg1=           0
         NFxFlg=           0 DoJE=F BraDBF=F KetDBF=F FulRan=T
         wScrn=  0.000000 ICntrl=       600 IOpCl=  0 I1Cent=           0 NGrid=           0
         NMat0=    1 NMatS0=  44850 NMatT0=    0 NMatD0=    1 NMtDS0=    0 NMtDT0=    0
 Symmetry not used in FoFCou.
 Two-electron integral symmetry not used.
 Closed shell SCF:
 Using DIIS extrapolation, IDIIS=  1040.
 NGot= 26843545600 LenX= 24831725604 LenY= 24831606138
 Requested convergence on RMS density matrix=1.00D-08 within 128 cycles.
 Requested convergence on MAX density matrix=1.00D-06.
 Requested convergence on             energy=1.00D-06.
 No special actions if energy rises.

 Cycle   1  Pass 1  IDiag  1:
 E= -209.193888980898    
 DIIS: error= 1.27D-04 at cycle   1 NSaved=   1.
 NSaved= 1 IEnMin= 1 EnMin= -209.193888980898     IErMin= 1 ErrMin= 1.27D-04
 ErrMax= 1.27D-04  0.00D+00 EMaxC= 1.00D-01 BMatC= 9.24D-07 BMatP= 9.24D-07
 IDIUse=3 WtCom= 9.99D-01 WtEn= 1.27D-03
 Coeff-Com:  0.100D+01
 Coeff-En:   0.100D+01
 Coeff:      0.100D+01
 Gap=     0.552 Goal=   None    Shift=    0.000
 RMSDP=9.33D-06 MaxDP=5.09D-04              OVMax= 6.73D-04

 Cycle   2  Pass 1  IDiag  1:
 E= -209.193891277165     Delta-E=       -0.000002296266 Rises=F Damp=F
 DIIS: error= 2.33D-05 at cycle   2 NSaved=   2.
 NSaved= 2 IEnMin= 2 EnMin= -209.193891277165     IErMin= 2 ErrMin= 2.33D-05
 ErrMax= 2.33D-05  0.00D+00 EMaxC= 1.00D-01 BMatC= 1.32D-07 BMatP= 9.24D-07
 IDIUse=1 WtCom= 1.00D+00 WtEn= 0.00D+00
 Coeff-Com:  0.197D+00 0.803D+00
 Coeff:      0.197D+00 0.803D+00
 Gap=     0.331 Goal=   None    Shift=    0.000
 RMSDP=1.58D-06 MaxDP=6.11D-05 DE=-2.30D-06 OVMax= 1.29D-04

 Cycle   3  Pass 1  IDiag  1:
 E= -209.193891400692     Delta-E=       -0.000000123527 Rises=F Damp=F
 DIIS: error= 1.26D-05 at cycle   3 NSaved=   3.
 NSaved= 3 IEnMin= 3 EnMin= -209.193891400692     IErMin= 3 ErrMin= 1.26D-05
 ErrMax= 1.26D-05  0.00D+00 EMaxC= 1.00D-01 BMatC= 3.99D-08 BMatP= 1.32D-07
 IDIUse=1 WtCom= 1.00D+00 WtEn= 0.00D+00
 Coeff-Com:  0.202D-01 0.331D+00 0.649D+00
 Coeff:      0.202D-01 0.331D+00 0.649D+00
 Gap=     0.331 Goal=   None    Shift=    0.000
 RMSDP=6.24D-07 MaxDP=2.43D-05 DE=-1.24D-07 OVMax= 5.70D-05

 Cycle   4  Pass 1  IDiag  1:
 E= -209.193891433736     Delta-E=       -0.000000033044 Rises=F Damp=F
 DIIS: error= 3.07D-06 at cycle   4 NSaved=   4.
 NSaved= 4 IEnMin= 4 EnMin= -209.193891433736     IErMin= 4 ErrMin= 3.07D-06
 ErrMax= 3.07D-06  0.00D+00 EMaxC= 1.00D-01 BMatC= 4.02D-09 BMatP= 3.99D-08
 IDIUse=1 WtCom= 1.00D+00 WtEn= 0.00D+00
 Coeff-Com: -0.151D-01 0.206D-01 0.231D+00 0.763D+00
 Coeff:     -0.151D-01 0.206D-01 0.231D+00 0.763D+00
 Gap=     0.331 Goal=   None    Shift=    0.000
 RMSDP=2.88D-07 MaxDP=1.11D-05 DE=-3.30D-08 OVMax= 2.42D-05

 Cycle   5  Pass 1  IDiag  1:
 E= -209.193891437070     Delta-E=       -0.000000003334 Rises=F Damp=F
 DIIS: error= 1.06D-06 at cycle   5 NSaved=   5.
 NSaved= 5 IEnMin= 5 EnMin= -209.193891437070     IErMin= 5 ErrMin= 1.06D-06
 ErrMax= 1.06D-06  0.00D+00 EMaxC= 1.00D-01 BMatC= 6.44D-10 BMatP= 4.02D-09
 IDIUse=1 WtCom= 1.00D+00 WtEn= 0.00D+00
 Coeff-Com: -0.768D-02-0.141D-01 0.450D-01 0.322D+00 0.654D+00
 Coeff:     -0.768D-02-0.141D-01 0.450D-01 0.322D+00 0.654D+00
 Gap=     0.331 Goal=   None    Shift=    0.000
 RMSDP=8.74D-08 MaxDP=3.05D-06 DE=-3.33D-09 OVMax= 1.09D-05

 Cycle   6  Pass 1  IDiag  1:
 E= -209.193891437508     Delta-E=       -0.000000000438 Rises=F Damp=F
 DIIS: error= 6.57D-07 at cycle   6 NSaved=   6.
 NSaved= 6 IEnMin= 6 EnMin= -209.193891437508     IErMin= 6 ErrMin= 6.57D-07
 ErrMax= 6.57D-07  0.00D+00 EMaxC= 1.00D-01 BMatC= 1.23D-10 BMatP= 6.44D-10
 IDIUse=1 WtCom= 1.00D+00 WtEn= 0.00D+00
 Coeff-Com: -0.934D-03-0.579D-02-0.858D-02 0.322D-01 0.318D+00 0.665D+00
 Coeff:     -0.934D-03-0.579D-02-0.858D-02 0.322D-01 0.318D+00 0.665D+00
 Gap=     0.331 Goal=   None    Shift=    0.000
 RMSDP=3.11D-08 MaxDP=1.49D-06 DE=-4.38D-10 OVMax= 7.37D-06

 Cycle   7  Pass 1  IDiag  1:
 E= -209.193891437609     Delta-E=       -0.000000000101 Rises=F Damp=F
 DIIS: error= 2.91D-07 at cycle   7 NSaved=   7.
 NSaved= 7 IEnMin= 7 EnMin= -209.193891437609     IErMin= 7 ErrMin= 2.91D-07
 ErrMax= 2.91D-07  0.00D+00 EMaxC= 1.00D-01 BMatC= 2.51D-11 BMatP= 1.23D-10
 IDIUse=1 WtCom= 1.00D+00 WtEn= 0.00D+00
 Coeff-Com:  0.281D-03-0.250D-02-0.112D-01-0.249D-01 0.819D-01 0.383D+00
 Coeff-Com:  0.573D+00
 Coeff:      0.281D-03-0.250D-02-0.112D-01-0.249D-01 0.819D-01 0.383D+00
 Coeff:      0.573D+00
 Gap=     0.331 Goal=   None    Shift=    0.000
 RMSDP=1.14D-08 MaxDP=4.76D-07 DE=-1.01D-10 OVMax= 1.29D-06

 Cycle   8  Pass 1  IDiag  1:
 E= -209.193891437632     Delta-E=       -0.000000000023 Rises=F Damp=F
 DIIS: error= 6.09D-08 at cycle   8 NSaved=   8.
 NSaved= 8 IEnMin= 8 EnMin= -209.193891437632     IErMin= 8 ErrMin= 6.09D-08
 ErrMax= 6.09D-08  0.00D+00 EMaxC= 1.00D-01 BMatC= 7.98D-13 BMatP= 2.51D-11
 IDIUse=1 WtCom= 1.00D+00 WtEn= 0.00D+00
 Coeff-Com:  0.250D-03 0.255D-03-0.412D-03-0.108D-01-0.357D-01 0.123D-01
 Coeff-Com:  0.638D-01 0.970D+00
 Coeff:      0.250D-03 0.255D-03-0.412D-03-0.108D-01-0.357D-01 0.123D-01
 Coeff:      0.638D-01 0.970D+00
 Gap=     0.331 Goal=   None    Shift=    0.000
 RMSDP=5.28D-09 MaxDP=2.05D-07 DE=-2.28D-11 OVMax= 7.66D-07

 SCF Done:  E(RCAM-B3LYP) =  -209.193891438     A.U. after    8 cycles
            NFock=  8  Conv=0.53D-08     -V/T= 2.0061
 KE= 2.079279888592D+02 PE=-7.318177866345D+02 EE= 1.933188203077D+02
 Leave Link  502 at Thu Apr  9 11:29:17 2020, MaxMem= 26843545600 cpu:             332.9 elap:              20.6
 (Enter /sob/g16/l801.exe)
 DoSCS=F DFT=T ScalE2(SS,OS)=  1.000000  1.000000
 Range of M.O.s used for correlation:     1   299
 NBasis=   299 NAE=    16 NBE=    16 NFC=     0 NFV=     0
 NROrb=    299 NOA=    16 NOB=    16 NVA=   283 NVB=   283

 **** Warning!!: The largest alpha MO coefficient is  0.41309267D+02

 Leave Link  801 at Thu Apr  9 11:29:17 2020, MaxMem= 26843545600 cpu:               0.8 elap:               0.0
 (Enter /sob/g16/l1002.exe)
 Minotr:  Closed shell wavefunction.
          Direct CPHF calculation.
          Differentiating once with respect to electric field.
                with respect to dipole field.
          Electric field/nuclear overlap derivatives assumed to be zero.
          Requested convergence is 1.0D-08 RMS, and 1.0D-07 maximum.
          NewPWx=F KeepS1=T KeepF1=T KeepIn=T MapXYZ=F SortEE=F KeepMc=T.
         4174 words used for storage of precomputed grid.
 Keep R1 and R3 ints in memory in canonical form, NReq=4064649102.
 FoFCou: FMM=F IPFlag=           0 FMFlag=           0 FMFlg1=           0
         NFxFlg=           0 DoJE=F BraDBF=F KetDBF=F FulRan=T
         wScrn=  0.000000 ICntrl=       600 IOpCl=  0 I1Cent=           0 NGrid=           0
         NMat0=    1 NMatS0=  44850 NMatT0=    0 NMatD0=    1 NMtDS0=    0 NMtDT0=    0
 Symmetry not used in FoFCou.
 Two-electron integral symmetry not used.
          MDV=   26843545600 using IRadAn=       4.
          Solving linear equations separately, MaxMat=       0.
          Doing perturbations at frequencies    0.000000    0.044236    0.101252    0.088473    0.202504
          There are    15 degrees of freedom in the 1st order CPHF.  IDoFFX=0 NUNeed=    15.
 LinEq1:  Iter=  0 NonCon=    15 RMS=9.67D-02 Max=4.60D+00 NDo=    15
 AX will form    15 AO Fock derivatives at one time.
 LinEq1:  Iter=  1 NonCon=    15 RMS=6.13D-02 Max=1.29D+00 NDo=    15
 LinEq1:  Iter=  2 NonCon=    15 RMS=4.51D-02 Max=1.61D+00 NDo=    15
 LinEq1:  Iter=  3 NonCon=    15 RMS=1.80D-02 Max=3.46D-01 NDo=    15
 LinEq1:  Iter=  4 NonCon=    15 RMS=7.48D-03 Max=1.56D-01 NDo=    15
 LinEq1:  Iter=  5 NonCon=    15 RMS=3.58D-03 Max=1.12D-01 NDo=    15
 LinEq1:  Iter=  6 NonCon=    15 RMS=2.67D-03 Max=7.84D-02 NDo=    15
 LinEq1:  Iter=  7 NonCon=    15 RMS=1.55D-03 Max=5.16D-02 NDo=    15
 LinEq1:  Iter=  8 NonCon=    15 RMS=5.59D-04 Max=1.74D-02 NDo=    15
 LinEq1:  Iter=  9 NonCon=    15 RMS=1.95D-04 Max=6.79D-03 NDo=    15
 LinEq1:  Iter= 10 NonCon=    14 RMS=1.04D-04 Max=3.05D-03 NDo=    15
 LinEq1:  Iter= 11 NonCon=    11 RMS=4.10D-05 Max=1.11D-03 NDo=    14
 LinEq1:  Iter= 12 NonCon=    11 RMS=1.13D-05 Max=3.74D-04 NDo=    11
 LinEq1:  Iter= 13 NonCon=    11 RMS=2.91D-06 Max=7.98D-05 NDo=    11
 LinEq1:  Iter= 14 NonCon=     8 RMS=6.89D-07 Max=1.72D-05 NDo=    11
 LinEq1:  Iter= 15 NonCon=     3 RMS=1.82D-07 Max=4.84D-06 NDo=     8
 LinEq1:  Iter= 16 NonCon=     2 RMS=4.31D-08 Max=9.53D-07 NDo=     3
 LinEq1:  Iter= 17 NonCon=     2 RMS=1.10D-08 Max=2.45D-07 NDo=     2
 LinEq1:  Iter= 18 NonCon=     0 RMS=2.40D-09 Max=5.38D-08 NDo=     2
 Linear equations converged to 1.000D-08 1.000D-07 after    18 iterations.
 FullF1:  Do perturbations      1 to      15.
 SCF Polarizability for W=    0.000000:
                1             2             3 
      1  0.442339D+02
      2 -0.288370D+01  0.442195D+02
      3  0.000000D+00  0.000000D+00  0.299539D+02
 Isotropic polarizability for W=    0.000000       39.47 Bohr**3.
 SCF Polarizability for W=    0.044236:
                1             2             3 
      1  0.446498D+02
      2 -0.295977D+01  0.446485D+02
      3  0.000000D+00  0.000000D+00  0.301526D+02
 Isotropic polarizability for W=    0.044236       39.82 Bohr**3.
 SCF Polarizability for W=    0.101252:
                1             2             3 
      1  0.465836D+02
      2 -0.332991D+01  0.466517D+02
      3  0.000000D+00  0.000000D+00  0.310605D+02
 Isotropic polarizability for W=    0.101252       41.43 Bohr**3.
 SCF Polarizability for W=    0.088473:
                1             2             3 
      1  0.459870D+02
      2 -0.321290D+01  0.460322D+02
      3  0.000000D+00  0.000000D+00  0.307830D+02
 Isotropic polarizability for W=    0.088473       40.93 Bohr**3.
 SCF Polarizability for W=    0.202504:
                1             2             3 
      1  0.587328D+02
      2 -0.596779D+01  0.593489D+02
      3  0.000000D+00  0.000000D+00  0.380383D+02
 Isotropic polarizability for W=    0.202504       52.04 Bohr**3.
 SCF Static Hyperpolarizability:
 K=  1 block:
                1 
      1  0.469476D+02
 K=  2 block:
                1             2 
      1  0.589450D+01
      2  0.423457D+02  0.617161D+02
 K=  3 block:
                1             2             3 
      1  0.000000D+00
      2  0.000000D+00  0.000000D+00
      3 -0.102142D+02  0.487327D+01  0.000000D+00
 SCF Beta(-W,W;0) for W=    0.044236:
 K=  1 block:
                1             2             3 
      1  0.500304D+02
      2  0.618419D+01  0.448064D+02
      3  0.000000D+00  0.000000D+00 -0.105302D+02
 K=  2 block:
                1             2             3 
      1  0.634739D+01
      2  0.447060D+02  0.641493D+02
      3  0.000000D+00  0.000000D+00  0.527785D+01
 K=  3 block:
                1             2             3 
      1  0.000000D+00
      2  0.000000D+00  0.000000D+00
      3 -0.105622D+02  0.520744D+01  0.000000D+00
 SCF Beta(W,W;-2W) for W=    0.044236:
 K=  1 block:
                1             2             3 
      1  0.571344D+02
      2  0.724258D+01  0.500542D+02
      3  0.000000D+00  0.000000D+00 -0.113432D+02
 K=  2 block:
                1             2             3 
      1  0.672115D+01
      2  0.503292D+02  0.696290D+02
      3  0.000000D+00  0.000000D+00  0.592047D+01
 K=  3 block:
                1             2             3 
      1  0.000000D+00
      2  0.000000D+00  0.000000D+00
      3 -0.112392D+02  0.618504D+01  0.000000D+00
 SCF Beta(-W,W;0) for W=    0.101252:
 K=  1 block:
                1             2             3 
      1  0.669080D+02
      2  0.794348D+01  0.581484D+02
      3  0.000000D+00  0.000000D+00 -0.119878D+02
 K=  2 block:
                1             2             3 
      1  0.902011D+01
      2  0.575873D+02  0.769501D+02
      3  0.000000D+00  0.000000D+00  0.787036D+01
 K=  3 block:
                1             2             3 
      1  0.000000D+00
      2  0.000000D+00  0.000000D+00
      3 -0.122456D+02  0.713254D+01  0.000000D+00
 SCF Beta(W,W;-2W) for W=    0.101252:
 K=  1 block:
                1             2             3 
      1  0.184229D+03
      2  0.331761D+02  0.155826D+03
      3  0.000000D+00  0.000000D+00 -0.156121D+02
 K=  2 block:
                1             2             3 
      1  0.302148D+02
      2  0.143997D+03  0.156883D+03
      3  0.000000D+00  0.000000D+00  0.217180D+02
 K=  3 block:
                1             2             3 
      1  0.000000D+00
      2  0.000000D+00  0.000000D+00
      3 -0.323613D+00  0.623364D+02  0.000000D+00
 SCF Beta(-W,W;0) for W=    0.088473:
 K=  1 block:
                1             2             3 
      1  0.612220D+02
      2  0.731680D+01  0.536747D+02
      3  0.000000D+00  0.000000D+00 -0.115451D+02
 K=  2 block:
                1             2             3 
      1  0.808188D+01
      2  0.532518D+02  0.727198D+02
      3  0.000000D+00  0.000000D+00  0.692386D+01
 K=  3 block:
                1             2             3 
      1  0.000000D+00
      2  0.000000D+00  0.000000D+00
      3 -0.117177D+02  0.646590D+01  0.000000D+00
 SCF Beta(-W,W;0) for W=    0.202504:
 K=  1 block:
                1             2             3 
      1  0.348892D+03
      2  0.762053D+02  0.270362D+03
      3  0.000000D+00  0.000000D+00  0.321758D+02
 K=  2 block:
                1             2             3 
      1  0.102571D+03
      2  0.282629D+03  0.268902D+03
      3  0.000000D+00  0.000000D+00  0.416284D+03
 K=  3 block:
                1             2             3 
      1  0.000000D+00
      2  0.000000D+00  0.000000D+00
      3  0.244855D+02  0.996142D+02  0.000000D+00
 End of Minotr F.D. properties on file   721 Mask=      31 NFrqRd=     3 NDeriv=     1 ND12= 1 LenFil=     140:
 Frequencies=    0.000000    0.044236    0.101252
 Property number 1 -- Alpha(-w,w) frequency  1    0.000000:
                 1             2             3 
      1   0.442339D+02 -0.288370D+01  0.000000D+00
      2  -0.288370D+01  0.442195D+02  0.000000D+00
      3   0.000000D+00  0.000000D+00  0.299539D+02
 Property number 1 -- Alpha(-w,w) frequency  2    0.044236:
                 1             2             3 
      1   0.446498D+02 -0.295977D+01  0.000000D+00
      2  -0.295977D+01  0.446485D+02  0.000000D+00
      3   0.000000D+00  0.000000D+00  0.301526D+02
 Property number 1 -- Alpha(-w,w) frequency  3    0.101252:
                 1             2             3 
      1   0.465836D+02 -0.332991D+01  0.000000D+00
      2  -0.332991D+01  0.466517D+02  0.000000D+00
      3   0.000000D+00  0.000000D+00  0.310605D+02
 Property number 5 -- Beta(-w,w,0) frequency  1    0.000000:
                 1 
      1   0.469476D+02
      2   0.589450D+01
      3   0.423457D+02
      4   0.000000D+00
      5   0.000000D+00
      6  -0.102142D+02
      7   0.589450D+01
      8   0.423457D+02
      9   0.617161D+02
     10   0.000000D+00
     11   0.000000D+00
     12   0.487327D+01
     13   0.000000D+00
     14   0.000000D+00
     15   0.000000D+00
     16  -0.102142D+02
     17   0.487327D+01
     18   0.000000D+00
 Property number 5 -- Beta(-w,w,0) frequency  2    0.044236:
                 1 
      1   0.500304D+02
      2   0.618419D+01
      3   0.448064D+02
      4   0.000000D+00
      5   0.000000D+00
      6  -0.105302D+02
      7   0.634739D+01
      8   0.447060D+02
      9   0.641493D+02
     10   0.000000D+00
     11   0.000000D+00
     12   0.527785D+01
     13   0.000000D+00
     14   0.000000D+00
     15   0.000000D+00
     16  -0.105622D+02
     17   0.520744D+01
     18   0.000000D+00
 Property number 5 -- Beta(-w,w,0) frequency  3    0.101252:
                 1 
      1   0.669080D+02
      2   0.794348D+01
      3   0.581484D+02
      4   0.000000D+00
      5   0.000000D+00
      6  -0.119878D+02
      7   0.902011D+01
      8   0.575873D+02
      9   0.769501D+02
     10   0.000000D+00
     11   0.000000D+00
     12   0.787036D+01
     13   0.000000D+00
     14   0.000000D+00
     15   0.000000D+00
     16  -0.122456D+02
     17   0.713254D+01
     18   0.000000D+00
 Property number 6 -- Beta(w,w,-2w) frequency  1    0.000000:
                 1 
      1   0.469476D+02
      2   0.589450D+01
      3   0.423457D+02
      4   0.000000D+00
      5   0.000000D+00
      6  -0.102142D+02
      7   0.589450D+01
      8   0.423457D+02
      9   0.617161D+02
     10   0.000000D+00
     11   0.000000D+00
     12   0.487327D+01
     13   0.000000D+00
     14   0.000000D+00
     15   0.000000D+00
     16  -0.102142D+02
     17   0.487327D+01
     18   0.000000D+00
 Property number 6 -- Beta(w,w,-2w) frequency  2    0.044236:
                 1 
      1   0.571344D+02
      2   0.724258D+01
      3   0.500542D+02
      4   0.000000D+00
      5   0.000000D+00
      6  -0.113432D+02
      7   0.672115D+01
      8   0.503292D+02
      9   0.696290D+02
     10   0.000000D+00
     11   0.000000D+00
     12   0.592047D+01
     13   0.000000D+00
     14   0.000000D+00
     15   0.000000D+00
     16  -0.112392D+02
     17   0.618504D+01
     18   0.000000D+00
 Property number 6 -- Beta(w,w,-2w) frequency  3    0.101252:
                 1 
      1   0.184229D+03
      2   0.331761D+02
      3   0.155826D+03
      4   0.000000D+00
      5   0.000000D+00
      6  -0.156121D+02
      7   0.302148D+02
      8   0.143997D+03
      9   0.156883D+03
     10   0.000000D+00
     11   0.000000D+00
     12   0.217180D+02
     13   0.000000D+00
     14   0.000000D+00
     15   0.000000D+00
     16  -0.323613D+00
     17   0.623364D+02
     18   0.000000D+00
 End of Minotr F.D. properties file   722 does not exist.
 End of Minotr F.D. properties file   788 does not exist.
 Leave Link 1002 at Thu Apr  9 11:31:27 2020, MaxMem= 26843545600 cpu:            4690.9 elap:             130.4
 (Enter /sob/g16/l601.exe)
 Copying SCF densities to generalized density rwf, IOpCl= 0 IROHF=0.

 **********************************************************************

            Population analysis using the SCF density.

 **********************************************************************

 Alpha  occ. eigenvalues --  -19.17429 -14.42896 -10.35093 -10.28665  -1.12353
 Alpha  occ. eigenvalues --   -1.01282  -0.80358  -0.67471  -0.62617  -0.53486
 Alpha  occ. eigenvalues --   -0.53085  -0.49021  -0.47112  -0.45336  -0.33172
 Alpha  occ. eigenvalues --   -0.33107
 Alpha virt. eigenvalues --    0.00014   0.01927   0.02931   0.03632   0.04635
 Alpha virt. eigenvalues --    0.05534   0.06573   0.08195   0.08274   0.09092
 Alpha virt. eigenvalues --    0.09510   0.10316   0.11581   0.11954   0.13101
 Alpha virt. eigenvalues --    0.14537   0.15385   0.15778   0.16371   0.19654
 Alpha virt. eigenvalues --    0.20085   0.20676   0.22017   0.22442   0.23676
 Alpha virt. eigenvalues --    0.25182   0.25626   0.27831   0.27925   0.28519
 Alpha virt. eigenvalues --    0.28866   0.29648   0.31077   0.32189   0.33288
 Alpha virt. eigenvalues --    0.33562   0.33775   0.34305   0.35472   0.36413
 Alpha virt. eigenvalues --    0.37446   0.37635   0.38975   0.39921   0.41490
 Alpha virt. eigenvalues --    0.42670   0.43146   0.43670   0.44999   0.45092
 Alpha virt. eigenvalues --    0.46168   0.47636   0.49604   0.50276   0.53030
 Alpha virt. eigenvalues --    0.54866   0.57228   0.59569   0.59838   0.61017
 Alpha virt. eigenvalues --    0.65179   0.66786   0.67078   0.69680   0.70550
 Alpha virt. eigenvalues --    0.71663   0.71733   0.73309   0.76771   0.77563
 Alpha virt. eigenvalues --    0.77590   0.77767   0.79782   0.81378   0.83604
 Alpha virt. eigenvalues --    0.83976   0.84759   0.85625   0.86504   0.88240
 Alpha virt. eigenvalues --    0.89061   0.92228   0.92440   0.92652   0.93325
 Alpha virt. eigenvalues --    0.94226   0.95176   0.96655   0.98003   0.98248
 Alpha virt. eigenvalues --    0.98999   1.01608   1.03002   1.04149   1.05215
 Alpha virt. eigenvalues --    1.06803   1.07610   1.08663   1.14613   1.15162
 Alpha virt. eigenvalues --    1.15400   1.16407   1.17551   1.19077   1.20215
 Alpha virt. eigenvalues --    1.24201   1.25503   1.26371   1.27477   1.28856
 Alpha virt. eigenvalues --    1.29918   1.32119   1.33396   1.36877   1.37393
 Alpha virt. eigenvalues --    1.40006   1.42119   1.42885   1.44229   1.45992
 Alpha virt. eigenvalues --    1.46398   1.47759   1.51785   1.52626   1.53823
 Alpha virt. eigenvalues --    1.56258   1.58536   1.59671   1.61084   1.64052
 Alpha virt. eigenvalues --    1.66269   1.70312   1.72097   1.74928   1.78020
 Alpha virt. eigenvalues --    1.78978   1.80090   1.85399   1.87953   1.88537
 Alpha virt. eigenvalues --    1.90410   1.92014   1.94234   1.99791   2.01906
 Alpha virt. eigenvalues --    2.02892   2.03414   2.07230   2.14081   2.20253
 Alpha virt. eigenvalues --    2.21950   2.21952   2.24321   2.27323   2.29756
 Alpha virt. eigenvalues --    2.29798   2.33407   2.33890   2.35971   2.38043
 Alpha virt. eigenvalues --    2.43938   2.46069   2.47107   2.51821   2.53512
 Alpha virt. eigenvalues --    2.54449   2.58755   2.63353   2.70442   2.73628
 Alpha virt. eigenvalues --    2.76482   2.81595   2.93143   2.93510   3.02247
 Alpha virt. eigenvalues --    3.07265   3.09010   3.12075   3.16958   3.20385
 Alpha virt. eigenvalues --    3.27364   3.29861   3.31735   3.35902   3.36752
 Alpha virt. eigenvalues --    3.38028   3.39952   3.40749   3.48761   3.51004
 Alpha virt. eigenvalues --    3.56038   3.56892   3.59864   3.64989   3.65631
 Alpha virt. eigenvalues --    3.71539   3.73898   3.78349   3.78790   3.82558
 Alpha virt. eigenvalues --    3.85668   3.86081   3.87991   3.90287   3.94081
 Alpha virt. eigenvalues --    3.97203   3.98846   4.02410   4.02998   4.08727
 Alpha virt. eigenvalues --    4.09005   4.12164   4.18297   4.18669   4.26130
 Alpha virt. eigenvalues --    4.29166   4.31235   4.32462   4.34619   4.43700
 Alpha virt. eigenvalues --    4.50013   4.50983   4.54581   4.54737   4.56667
 Alpha virt. eigenvalues --    4.60990   4.65723   4.65962   4.72542   4.75169
 Alpha virt. eigenvalues --    4.77307   4.86832   4.87349   4.87410   4.88601
 Alpha virt. eigenvalues --    4.90291   4.99283   5.01779   5.01823   5.13680
 Alpha virt. eigenvalues --    5.18829   5.22745   5.28447   5.28777   5.32676
 Alpha virt. eigenvalues --    5.34499   5.35720   5.39312   5.41880   5.51492
 Alpha virt. eigenvalues --    5.53186   5.64361   5.72150   5.78588   5.79636
 Alpha virt. eigenvalues --    5.80800   5.90838   5.98723   5.98773   6.14366
 Alpha virt. eigenvalues --    6.22499   6.31283   6.35158   6.36453   6.40473
 Alpha virt. eigenvalues --    6.42548   6.46026   6.56396   6.59747   6.70677
 Alpha virt. eigenvalues --    6.78816   6.87106   6.92287   7.10899   7.17049
 Alpha virt. eigenvalues --    7.19008   7.37884   7.45417   7.51096  14.76482
 Alpha virt. eigenvalues --   15.89656  16.98292  17.98163
 Electronic spatial extent (au):  <R**2>=            280.4423
 Charge=             -0.0000 electrons
 Dipole moment (field-independent basis, Debye):
    X=             -0.8959    Y=              4.0071    Z=              0.0000  Tot=              4.1060
 Quadrupole moment (field-independent basis, Debye-Ang):
   XX=            -22.0400   YY=            -26.6646   ZZ=            -25.2251
   XY=              2.2388   XZ=             -0.0000   YZ=              0.0000
 Traceless Quadrupole moment (field-independent basis, Debye-Ang):
   XX=              2.6032   YY=             -2.0214   ZZ=             -0.5818
   XY=              2.2388   XZ=             -0.0000   YZ=              0.0000
 Octapole moment (field-independent basis, Debye-Ang**2):
  XXX=              1.7827  YYY=             13.1790  ZZZ=              0.0000  XYY=             -3.2058
  XXY=              3.0222  XXZ=             -0.0000  XZZ=             -0.1428  YZZ=             -1.7926
  YYZ=              0.0000  XYZ=             -0.0000
 Hexadecapole moment (field-independent basis, Debye-Ang**3):
 XXXX=           -187.1415 YYYY=           -133.5371 ZZZZ=            -32.2096 XXXY=             34.1318
 XXXZ=              0.0000 YYYX=             39.0422 YYYZ=              0.0000 ZZZX=             -0.0000
 ZZZY=              0.0000 XXYY=            -56.9438 XXZZ=            -37.7258 YYZZ=            -30.1925
 XXYZ=              0.0000 YYXZ=             -0.0000 ZZXY=             11.9933
 N-N= 1.213770860300D+02 E-N=-7.318177854509D+02  KE= 2.079279888592D+02
  Exact polarizability:  44.234  -2.884  44.219   0.000  -0.000  29.954
 Approx polarizability:  44.485  -1.532  53.735   0.000  -0.000  34.981
 No NMR shielding tensors so no spin-rotation constants.
 Leave Link  601 at Thu Apr  9 11:31:28 2020, MaxMem= 26843545600 cpu:               8.7 elap:               0.3
 (Enter /sob/g16/l106.exe)
 NDeriv=      3 NFrqRd=  3 NDerD0=      0 MskFDP=      31 MskDFD=      31 MskDF0=       0
 Re-enter D2Numr:  atom   0 IXYZ=1 step-up   number 1
 Leave Link  106 at Thu Apr  9 11:31:28 2020, MaxMem= 26843545600 cpu:               3.2 elap:               0.1
 (Enter /sob/g16/l301.exe)
 Standard basis: Aug-CC-pVTZ (5D, 7F)
 Ernie: Thresh=  0.10000D-02 Tol=  0.10000D-05 Strict=F.
 Ernie:  12 primitive shells out of 175 were deleted.
 The following finite field(s) will be applied:
 An electric field of             -0.0003  0.0000  0.0000
   299 basis functions,   423 primitive gaussians,   345 cartesian basis functions
    16 alpha electrons       16 beta electrons
       nuclear repulsion energy       121.3770860300 Hartrees.
 IExCor=20419 DFT=T Ex+Corr=CAM-B3LYP ExCW=0 ScaHFX=  1.000000
 ScaDFX=  1.000000  1.000000  1.000000  0.810000 ScalE2=  1.000000  1.000000
 IRadAn=      5 IRanWt=     -1 IRanGd=            0 ICorTp=0 IEmpDi=  4
 HFx  wShort=  0.000000 wLong=  0.330000 cFull=  0.190000 cShort=  0.000000 cLong=  0.460000
 DFx  wShort=  0.000000 wLong=  0.330000 cFull=  0.190000 cShort=  0.000000 cLong=  0.460000
 NAtoms=    9 NActive=    9 NUniq=    9 SFac= 1.00D+00 NAtFMM=   60 NAOKFM=F Big=F
 Integral buffers will be    131072 words long.
 Raffenetti 2 integral format.
 Two-electron integral symmetry is turned off.
 Leave Link  301 at Thu Apr  9 11:31:28 2020, MaxMem= 26843545600 cpu:               1.4 elap:               0.1
 (Enter /sob/g16/l302.exe)
 NPDir=0 NMtPBC=     1 NCelOv=     1 NCel=       1 NClECP=     1 NCelD=      1
         NCelK=      1 NCelE2=     1 NClLst=     1 CellRange=     0.0.
 One-electron integrals computed using PRISM.
 NBasis=   299 RedAO= T EigKep=  3.05D-05  NBF=   299
 NBsUse=   299 1.00D-06 EigRej= -1.00D+00 NBFU=   299
 Precomputing XC quadrature grid using
 IXCGrd= 4 IRadAn=           5 IRanWt=          -1 IRanGd=           0 AccXCQ= 0.00D+00.
 Generated NRdTot=       0 NPtTot=           0 NUsed=           0 NTot=          32
 NSgBfM=   345   345   345   345   345 MxSgAt=     9 MxSgA2=     9.
 Leave Link  302 at Thu Apr  9 11:31:28 2020, MaxMem= 26843545600 cpu:              10.8 elap:               0.3
 (Enter /sob/g16/l303.exe)
 DipDrv:  MaxL=1.
 The nuclear repulsion energy is now       121.3770860300 hartrees.
 Leave Link  303 at Thu Apr  9 11:31:28 2020, MaxMem= 26843545600 cpu:               1.4 elap:               0.1
 (Enter /sob/g16/l401.exe)
 Initial guess from the checkpoint file:  "/sob2/gauscr/Gau-2786.chk"
 B after Tr=     0.000000    0.000000    0.000000
         Rot=    1.000000    0.000000    0.000000    0.000000 Ang=   0.00 deg.
 Guess basis will be translated and rotated to current coordinates.
 JPrj=2 DoOrth=T DoCkMO=T.
 Leave Link  401 at Thu Apr  9 11:31:28 2020, MaxMem= 26843545600 cpu:               5.2 elap:               0.2
 (Enter /sob/g16/l502.exe)
 Keep R1 ints in memory in canonical form, NReq=2053137962.
 FoFCou: FMM=F IPFlag=           0 FMFlag=           0 FMFlg1=           0
         NFxFlg=           0 DoJE=F BraDBF=F KetDBF=F FulRan=T
[...]
   yyz        0.770307D+01      0.665485D-01      0.246988D-01
   zxz        0.484414D+02      0.418496D+00      0.155321D+00
   zyz        0.103843D+02      0.897121D-01      0.332958D-01
   zzz        0.339324D+02      0.293149D+00      0.108800D+00
 Beta(-w;w,0) w=  450.0nm:
                  (au)         (10**-30 esu)      (10**-50 SI)
   || (z)     0.403313D+02      0.348431D+00      0.129317D+00
   _|_(z)     0.139740D+02      0.120724D+00      0.448056D-01
   x          0.358927D+03      0.310085D+01      0.115085D+01
   y          0.769424D+02      0.664723D+00      0.246705D+00
   z          0.201657D+03      0.174216D+01      0.646584D+00
   ||         0.837649D+02      0.723664D+00      0.268581D+00
   xxx        0.648301D+02      0.560082D+00      0.207869D+00
   yxx        0.186607D+02      0.161214D+00      0.598330D-01
   yyx       -0.640243D+01     -0.553120D-01     -0.205285D-01
   zxx        0.185074D+02      0.159890D+00      0.593415D-01
   zyx        0.193544D+01      0.167207D-01      0.620572D-02
   zzx        0.619605D+02      0.535290D+00      0.198668D+00
   xxy        0.187414D+02      0.161911D+00      0.600916D-01
   yxy       -0.677857D+01     -0.585616D-01     -0.217345D-01
   yyy       -0.621634D+01     -0.537043D-01     -0.199318D-01
   zxy        0.193544D+01      0.167207D-01      0.620572D-02
   zyy        0.989373D+01      0.854741D-01      0.317229D-01
   zzy        0.132823D+02      0.114749D+00      0.425880D-01
   xxz        0.194338D+02      0.167893D+00      0.623117D-01
   yxz        0.199434D+01      0.172296D-01      0.639458D-02
   yyz        0.105580D+02      0.912125D-01      0.338526D-01
   zxz        0.612179D+02      0.528875D+00      0.196287D+00
   zyz        0.131231D+02      0.113374D+00      0.420776D-01
   zzz        0.382875D+02      0.330774D+00      0.122764D+00
 Beta(-2w;w,w) w= 1030.0nm:
                  (au)         (10**-30 esu)      (10**-50 SI)
   || (z)     0.366707D+02      0.316806D+00      0.117579D+00
   _|_(z)     0.119961D+02      0.103637D+00      0.384640D-01
   x          0.308493D+03      0.266514D+01      0.989141D+00
   y          0.661310D+02      0.571321D+00      0.212040D+00
   z          0.183353D+03      0.158403D+01      0.587897D+00
   ||         0.729821D+02      0.630509D+00      0.234007D+00
   xxx        0.553042D+02      0.477786D+00      0.177325D+00
   yxx        0.163129D+02      0.140931D+00      0.523051D-01
   zxx        0.163142D+02      0.140942D+00      0.523092D-01
   xyx        0.163444D+02      0.141203D+00      0.524061D-01
   yyx       -0.641524D+01     -0.554227D-01     -0.205696D-01
   zyx        0.175396D+01      0.151528D-01      0.562382D-02
   xyy       -0.656224D+01     -0.566927D-01     -0.210409D-01
   yyy       -0.586419D+01     -0.506620D-01     -0.188027D-01
   zyy        0.850820D+01      0.735042D-01      0.272804D-01
   xzx        0.167566D+02      0.144764D+00      0.537277D-01
   yzx        0.179947D+01      0.155460D-01      0.576974D-02
   zzx        0.541133D+02      0.467497D+00      0.173507D+00
   xzy        0.179947D+01      0.155460D-01      0.576974D-02
   yzy        0.874806D+01      0.755765D-01      0.280495D-01
   zzy        0.116002D+02      0.100216D+00      0.371943D-01
   xzz        0.537466D+02      0.464329D+00      0.172331D+00
   yzz        0.115216D+02      0.995372D-01      0.369423D-01
   zzz        0.358406D+02      0.309634D+00      0.114918D+00
 Beta(-2w;w,w) w=  450.0nm:
                  (au)         (10**-30 esu)      (10**-50 SI)
   || (z)     0.967313D+02      0.835683D+00      0.310156D+00
   _|_(z)     0.185378D+02      0.160152D+00      0.594389D-01
   x          0.102366D+04      0.884364D+01      0.328223D+01
   y          0.219440D+03      0.189579D+01      0.703605D+00
   z          0.483657D+03      0.417842D+01      0.155078D+01
   ||         0.230648D+03      0.199262D+01      0.739541D+00
   xxx        0.185924D+03      0.160624D+01      0.596139D+00
   yxx        0.361275D+02      0.312114D+00      0.115838D+00
   zxx        0.474483D+02      0.409917D+00      0.152137D+00
   xyx        0.408321D+02      0.352758D+00      0.130922D+00
   yyx        0.170502D+02      0.147300D+00      0.546691D-01
   zyx        0.502600D+01      0.434207D-01      0.161152D-01
   xyy       -0.489614D+01     -0.422988D-01     -0.156988D-01
   yyy        0.267904D+01      0.231448D-01      0.858996D-02
   zyy        0.250801D+02      0.216672D+00      0.804159D-01
   xzx        0.543363D+02      0.469424D+00      0.174222D+00
   yzx       -0.111756D+01     -0.965482D-02     -0.358329D-02
   zzx        0.141980D+03      0.122660D+01      0.455240D+00
   xzy       -0.111756D+01     -0.965482D-02     -0.358329D-02
   yzy        0.593100D+02      0.512392D+00      0.190169D+00
   zzy        0.304360D+02      0.262944D+00      0.975889D-01
   xzz        0.152726D+03      0.131943D+01      0.489693D+00
   yzz        0.327395D+02      0.282844D+00      0.104975D+00
   zzz        0.612785D+02      0.529398D+00      0.196481D+00

 Second dipole hyperpolarizability, Gamma (dipole orientation).
 ||, _|_  isotropic parallel and perpendicular components.
 Values do not include the 1/n! factor of 1/6.
 (esu units = statvolt**-2 cm**5 , SI units = C**4 m**4 J**-3)
 Gamma(0;0,0,0):
               (au)            (10**-36 esu)      (10**-61 SI)
   ||         0.762312D+04      0.383953D+01      0.475330D+01
   _|_        0.254104D+04      0.127984D+01      0.158443D+01
   xxxx       0.106214D+05      0.534969D+01      0.662286D+01
   xxyx       0.679839D+03      0.342414D+00      0.423905D+00
   xxyy       0.253946D+04      0.127905D+01      0.158345D+01
   yxyy       0.627902D+03      0.316255D+00      0.391521D+00
   yyyy       0.480094D+04      0.241809D+01      0.299357D+01
   xxzx       0.967893D+03      0.487498D+00      0.603518D+00
   xxzy       0.545648D+01      0.274826D-02      0.340232D-02
   yxzy       0.450723D+03      0.227016D+00      0.281043D+00
   yyzy       0.298703D+03      0.150448D+00      0.186253D+00
   xxzz       0.278122D+04      0.140082D+01      0.173420D+01
   yxzz       0.157511D+03      0.793336D-01      0.982142D-01
   yyzz       0.208022D+04      0.104774D+01      0.129709D+01
   zxzz       0.164813D+03      0.830112D-01      0.102767D+00
   zyzz       0.353306D+02      0.177949D-01      0.220300D-01
   zzzz       0.789195D+04      0.397494D+01      0.492093D+01
 Gamma(-w;w,0,0) w= 1030.0nm:
                  (au)         (10**-36 esu)      (10**-61 SI)
   ||         0.804160D+04      0.405031D+01      0.501425D+01
   _|_        0.267862D+04      0.134914D+01      0.167022D+01
   xxxx       0.112233D+05      0.565286D+01      0.699818D+01
   yxxx       0.715971D+03      0.360613D+00      0.446435D+00
   yyxx       0.268898D+04      0.135436D+01      0.167668D+01
   zxxx       0.108345D+04      0.545702D+00      0.675574D+00
   zyxx       0.122379D+02      0.616384D-02      0.763077D-02
   zzxx       0.293625D+04      0.147890D+01      0.183087D+01
   xxyx       0.716388D+03      0.360823D+00      0.446695D+00
   yxyx       0.268261D+04      0.135115D+01      0.167271D+01
   yyyx       0.678982D+03      0.341983D+00      0.423371D+00
   zxyx       0.108284D+02      0.545392D-02      0.675189D-02
   zyyx       0.492061D+03      0.247836D+00      0.306819D+00
   zzyx       0.166489D+03      0.838556D-01      0.103812D+00
   xxyy       0.268673D+04      0.135322D+01      0.167528D+01
   yxyy       0.678388D+03      0.341684D+00      0.423001D+00
   yyyy       0.501549D+04      0.252615D+01      0.312735D+01
   zxyy       0.498369D+03      0.251013D+00      0.310752D+00
   zyyy       0.326854D+03      0.164626D+00      0.203806D+00
   zzyy       0.219529D+04      0.110570D+01      0.136885D+01
   xxzx       0.108424D+04      0.546100D+00      0.676067D+00
   yxzx       0.102281D+02      0.515158D-02      0.637760D-02
   yyzx       0.499558D+03      0.251612D+00      0.311493D+00
   zxzx       0.293972D+04      0.148065D+01      0.183303D+01
   zyzx       0.167971D+03      0.846018D-01      0.104736D+00
   zzzx       0.189612D+03      0.955018D-01      0.118230D+00
   xxzy       0.114234D+02      0.575362D-02      0.712293D-02
   yxzy       0.493982D+03      0.248804D+00      0.308016D+00
   yyzy       0.328093D+03      0.165250D+00      0.204578D+00
   zxzy       0.167971D+03      0.846018D-01      0.104736D+00
   zyzy       0.219217D+04      0.110413D+01      0.136690D+01
   zzzy       0.406467D+02      0.204725D-01      0.253448D-01
   xxzz       0.293918D+04      0.148038D+01      0.183269D+01
   yxzz       0.165030D+03      0.831208D-01      0.102903D+00
   yyzz       0.220471D+04      0.111045D+01      0.137472D+01
   zxzz       0.219527D+03      0.110569D+00      0.136883D+00
   zyzz       0.470594D+02      0.237024D-01      0.293434D-01
   zzzz       0.833242D+04      0.419679D+01      0.519558D+01
 Gamma(-w;w,0,0) w=  450.0nm:
                  (au)         (10**-36 esu)      (10**-61 SI)
   ||         0.103525D+05      0.521425D+01      0.645519D+01
   _|_        0.342473D+04      0.172493D+01      0.213545D+01
   xxxx       0.145621D+05      0.733451D+01      0.908005D+01
   yxxx       0.909752D+03      0.458214D+00      0.567265D+00
   yyxx       0.354936D+04      0.178770D+01      0.221316D+01
   zxxx       0.180842D+04      0.910844D+00      0.112762D+01
   zyxx       0.607807D+02      0.306134D-01      0.378991D-01
   zzxx       0.381698D+04      0.192250D+01      0.238003D+01
   xxyx       0.918095D+03      0.462416D+00      0.572467D+00
   yxyx       0.346824D+04      0.174684D+01      0.216258D+01
   yyyx       0.980586D+03      0.493891D+00      0.611433D+00
   zxyx       0.488340D+02      0.245962D-01      0.304499D-01
   zyyx       0.738059D+03      0.371738D+00      0.460208D+00
   zzyx       0.220409D+03      0.111013D+00      0.137434D+00
   xxyy       0.351171D+04      0.176874D+01      0.218968D+01
   yxyy       0.972009D+03      0.489572D+00      0.606085D+00
   yyyy       0.614970D+04      0.309742D+01      0.383457D+01
   zxyy       0.793431D+03      0.399627D+00      0.494734D+00
   zyyy       0.496972D+03      0.250310D+00      0.309881D+00
   zzyy       0.283605D+04      0.142843D+01      0.176838D+01
   xxzx       0.180173D+04      0.907478D+00      0.112345D+01
   yxzx       0.383998D+02      0.193408D-01      0.239437D-01
   yyzx       0.812610D+03      0.409287D+00      0.506693D+00
   zxzx       0.382480D+04      0.192643D+01      0.238491D+01
   zyzx       0.229415D+03      0.115549D+00      0.143049D+00
   zzzx       0.353536D+03      0.178065D+00      0.220443D+00
   xxzy       0.508439D+02      0.256086D-01      0.317031D-01
   yxzy       0.754559D+03      0.380049D+00      0.470496D+00
   yyzy       0.509587D+03      0.256664D+00      0.317747D+00
   zxzy       0.229415D+03      0.115549D+00      0.143049D+00
   zyzy       0.280378D+04      0.141218D+01      0.174827D+01
   zzzy       0.757867D+02      0.381715D-01      0.472559D-01
   xxzz       0.383049D+04      0.192930D+01      0.238846D+01
   yxzz       0.199238D+03      0.100350D+00      0.124233D+00
   yyzz       0.294378D+04      0.148269D+01      0.183556D+01
   zxzz       0.600687D+03      0.302548D+00      0.374551D+00
   zyzz       0.128768D+03      0.648566D-01      0.802918D-01
   zzzz       0.107582D+05      0.541858D+01      0.670814D+01
 Gamma(-2w;w,w,0) w= 1030.0nm:
                  (au)         (10**-36 esu)      (10**-61 SI)
   ||         0.900919D+04      0.453766D+01      0.561757D+01
   _|_        0.299364D+04      0.150781D+01      0.167022D+01
   xxxx       0.126185D+05      0.635556D+01      0.786812D+01
   yxxx       0.797547D+03      0.401700D+00      0.497301D+00
   zxxx       0.136979D+04      0.689923D+00      0.854118D+00
   xyxx       0.799898D+03      0.402885D+00      0.498767D+00
   yyxx       0.303089D+04      0.152657D+01      0.188988D+01
   zyxx       0.298609D+02      0.150400D-01      0.186194D-01
   xyyx       0.300445D+04      0.151325D+01      0.187339D+01
   yyyx       0.801335D+03      0.403608D+00      0.499663D+00
   zyyx       0.581447D+03      0.292857D+00      0.362555D+00
   xzxx       0.137038D+04      0.690219D+00      0.854484D+00
   yzxx       0.264914D+02      0.133429D-01      0.165184D-01
   zzxx       0.330138D+04      0.166281D+01      0.205854D+01
   xzyx       0.210271D+02      0.105907D-01      0.131112D-01
   yzyx       0.611578D+03      0.308033D+00      0.381342D+00
   zzyx       0.189402D+03      0.953959D-01      0.118099D+00
   xzzx       0.331579D+04      0.167006D+01      0.206752D+01
   yzzx       0.195415D+03      0.984247D-01      0.121849D+00
   zzzx       0.254012D+03      0.127938D+00      0.158386D+00
   xxxy       0.801056D+03      0.403468D+00      0.499489D+00
   yxxy       0.300710D+04      0.151459D+01      0.187504D+01
   zxxy       0.249711D+02      0.125772D-01      0.155704D-01
   xyxy       0.302308D+04      0.152263D+01      0.188501D+01
   yyxy       0.800177D+03      0.403025D+00      0.498941D+00
   zyxy       0.604257D+03      0.304346D+00      0.376778D+00
   xyyy       0.797826D+03      0.401841D+00      0.497475D+00
   yyyy       0.550000D+04      0.277019D+01      0.342946D+01
   zyyy       0.393312D+03      0.198100D+00      0.245245D+00
   xzxy       0.260760D+02      0.131337D-01      0.162594D-01
   yzxy       0.588026D+03      0.296171D+00      0.366656D+00
   zzxy       0.189402D+03      0.953959D-01      0.118099D+00
   xzyy       0.613516D+03      0.309009D+00      0.382550D+00
   yzyy       0.398792D+03      0.200860D+00      0.248662D+00
   zzyy       0.245845D+04      0.123825D+01      0.153294D+01
   xzzy       0.195415D+03      0.984247D-01      0.121849D+00
   yzzy       0.244609D+04      0.123202D+01      0.152523D+01
   zzzy       0.544521D+02      0.274259D-01      0.339529D-01
   xxxz       0.137085D+04      0.690453D+00      0.854775D+00
   yxxz       0.203566D+02      0.102530D-01      0.126931D-01
   zxxz       0.331280D+04      0.166856D+01      0.206566D+01
   xyxz       0.250928D+02      0.126385D-01      0.156463D-01
   yyxz       0.614006D+03      0.309256D+00      0.382856D+00
   zyxz       0.197224D+03      0.993358D-01      0.122977D+00
   xyyz       0.591912D+03      0.298128D+00      0.369080D+00
   yyyz       0.400396D+03      0.201667D+00      0.249662D+00
   zyyz       0.243505D+04      0.122646D+01      0.151835D+01
   xzxz       0.330739D+04      0.166583D+01      0.206229D+01
   yzxz       0.184812D+03      0.930842D-01      0.115237D+00
   zzxz       0.289598D+03      0.145862D+00      0.180575D+00
   xzyz       0.184812D+03      0.930842D-01      0.115237D+00
   yzyz       0.248489D+04      0.125156D+01      0.154942D+01
   zzyz       0.620805D+02      0.312681D-01      0.387096D-01
   xzzz       0.402998D+03      0.202978D+00      0.251285D+00
   yzzz       0.863899D+02      0.435120D-01      0.538674D-01
   zzzz       0.934964D+04      0.470913D+01      0.582986D+01
 Gamma(-2w;w,w,0) w=  450.0nm:
                  (au)         (10**-36 esu)      (10**-61 SI)
   ||         0.305774D+05      0.154009D+02      0.190662D+02
   _|_        0.904827D+04      0.455734D+01      0.213545D+01
   xxxx       0.421606D+05      0.212350D+02      0.262888D+02
   yxxx       0.664219D+03      0.334547D+00      0.414166D+00
   zxxx       0.111163D+05      0.559893D+01      0.693142D+01
   xyxx       0.191108D+04      0.962554D+00      0.119163D+01
   yyxx       0.131331D+05      0.661476D+01      0.818901D+01
   zyxx       0.900520D+03      0.453564D+00      0.561508D+00
   xyyx       0.891463D+04      0.449003D+01      0.555861D+01
   yyyx       0.482818D+04      0.243181D+01      0.301055D+01
   zyyx       0.281756D+04      0.141912D+01      0.175686D+01
   xzxx       0.107970D+05      0.543814D+01      0.673237D+01
   yzxx      -0.331233D+03     -0.166832D+00     -0.206537D+00
   zzxx       0.112094D+05      0.564583D+01      0.698949D+01
   xzyx      -0.440273D+03     -0.221752D+00     -0.274527D+00
   yzyx       0.723453D+04      0.364382D+01      0.451101D+01
   zzyx       0.665725D+03      0.335306D+00      0.415105D+00
   xzzx       0.124534D+05      0.627239D+01      0.776516D+01
   yzzx       0.993026D+03      0.500157D+00      0.619189D+00
   zzzx       0.279462D+04      0.140757D+01      0.174255D+01
   xxxy       0.193421D+04      0.974204D+00      0.120606D+01
   yxxy       0.116377D+05      0.586158D+01      0.725658D+01
   zxxy       0.624120D+03      0.314350D+00      0.389163D+00
   xyxy       0.103071D+05      0.519136D+01      0.642685D+01
   yyxy       0.480505D+04      0.242016D+01      0.299613D+01
   zyxy       0.410693D+04      0.206854D+01      0.256083D+01
   xyyy       0.355818D+04      0.179215D+01      0.221866D+01
   yyyy       0.149936D+05      0.755180D+01      0.934906D+01
   zyyy       0.236285D+04      0.119009D+01      0.147332D+01
   xzxy       0.150555D+03      0.758298D-01      0.938766D-01
   yzxy       0.447840D+04      0.225563D+01      0.279245D+01
   zzxy       0.665725D+03      0.335306D+00      0.415105D+00
   xzyy       0.498705D+04      0.251183D+01      0.310962D+01
   yzyy       0.371484D+04      0.187105D+01      0.231634D+01
   zzyy       0.824658D+04      0.415355D+01      0.514206D+01
   xzzy       0.993026D+03      0.500157D+00      0.619189D+00
   yzzy       0.803392D+04      0.404644D+01      0.500945D+01
   zzzy       0.599077D+03      0.301737D+00      0.373547D+00
   xxxz       0.112580D+05      0.567033D+01      0.701981D+01
   yxxz      -0.163828D+04     -0.825151D+00     -0.102153D+01
   zxxz       0.119168D+05      0.600214D+01      0.743058D+01
   xyxz      -0.339784D+03     -0.171139D+00     -0.211868D+00
   yyxz       0.894309D+04      0.450436D+01      0.557636D+01
   zyxz       0.120499D+04      0.606919D+00      0.751360D+00
   xyyz       0.288577D+04      0.145348D+01      0.179939D+01
   yyyz       0.467026D+04      0.235227D+01      0.291208D+01
   zyyz       0.655397D+04      0.330104D+01      0.408665D+01
   xzxz       0.118060D+05      0.594630D+01      0.736146D+01
   yzxz      -0.741520D+03     -0.373481D+00     -0.462366D+00
   zzxz       0.368411D+04      0.185558D+01      0.229718D+01
   xzyz      -0.741520D+03     -0.373481D+00     -0.462366D+00
   yzyz       0.151061D+05      0.760848D+01      0.941923D+01
   zzyz       0.789755D+03      0.397776D+00      0.492443D+00
   xzzz       0.101264D+05      0.510036D+01      0.631420D+01
   yzzz       0.217078D+04      0.109335D+01      0.135356D+01
   zzzz       0.293571D+05      0.147863D+02      0.183053D+02

 ----------------------------------------------------------------------
 1\1\GINC-LOCALHOST\SP\RCAM-B3LYP\Aug-CC-pVTZ\C2H5N1O1\ROOT\09-Apr-2020
 \0\\#P CAM-B3LYP/aug-cc-pVTZ polar=gamma CPHF=rdfreq\\B3LYP/6-311++G**
  opted\\0,1\C,0,-1.421854,0.484346,0.\H,0,-1.991379,1.413451,0.\H,0,-1
 .687457,-0.099367,0.884524\H,0,-1.687457,-0.099367,-0.884524\N,0,0.,0.
 804279,0.\C,0,0.956554,-0.158415,0.\H,0,0.293332,1.7683,0.\O,0,0.73560
 3,-1.353732,0.\H,0,1.979939,0.261301,0.\\Version=ES64L-G16RevA.03\Stat
 e=1-A'\HF=-209.1937764\RMSD=9.141e-09\Dipole=-0.3377483,1.5755544,0.\P
 olar=44.2188147,-2.8855887,44.2055355,0.,0.,29.9574745\HyperPolar=43.6
 298485,5.4636364,41.277762,61.5859538,0.,0.,0.,-10.9822115,4.6939503,0
 .\DQPolar=-8.1934778,6.3151358,1.878342,18.3641081,0.,0.,6.1823764,3.7
 339948,-9.9163712,-0.2547334,0.,0.,0.,0.,0.,0.,-17.9653724,3.8236135\Q
 uadrupole=1.9327243,-1.500753,-0.4319714,1.6706163,0.,0.\PG=CS [SG(C2H
 3N1O1),X(H2)]\\@


 ALL MEN WHO EXPLORE
 DEPLORE
 THAT FRUSTRATING HURDLE
 THE GIRDLE.

         -- COLIN FLETCHER
 Job cpu time:       0 days  8 hours  6 minutes 51.4 seconds.
 Elapsed time:       0 days  0 hours 14 minutes 28.2 seconds.
 File lengths (MBytes):  RWF=    212 Int=      0 D2E=      0 Chk=     49 Scr=      1
 Normal termination of Gaussian 16 at Thu Apr  9 11:41:50 2020.
