 Default is to use a total of   4 processors:
                                4 via shared-memory
                                1 via Linda
 Entering Link 1 = d:\study\G09W\l1.exe PID=      7284.
  
 Copyright (c) 1988,1990,1992,1993,1995,1998,2003,2009, Gaussian, Inc.
                  All Rights Reserved.
  
 This is part of the Gaussian(R) 09 program.  It is based on
 the Gaussian(R) 03 system (copyright 2003, Gaussian, Inc.),
 the Gaussian(R) 98 system (copyright 1998, Gaussian, Inc.),
 the Gaussian(R) 94 system (copyright 1995, Gaussian, Inc.),
 the Gaussian 92(TM) system (copyright 1992, Gaussian, Inc.),
 the Gaussian 90(TM) system (copyright 1990, Gaussian, Inc.),
 the Gaussian 88(TM) system (copyright 1988, Gaussian, Inc.),
 the Gaussian 86(TM) system (copyright 1986, Carnegie Mellon
 University), and the Gaussian 82(TM) system (copyright 1983,
 Carnegie Mellon University). Gaussian is a federally registered
 trademark of Gaussian, Inc.
  
 This software contains proprietary and confidential information,
 including trade secrets, belonging to Gaussian, Inc.
  
 This software is provided under written license and may be
 used, copied, transmitted, or stored only in accord with that
 written license.
  
 The following legend is applicable only to US Government
 contracts under FAR:
  
                    RESTRICTED RIGHTS LEGEND
  
 Use, reproduction and disclosure by the US Government is
 subject to restrictions as set forth in subparagraphs (a)
 and (c) of the Commercial Computer Software - Restricted
 Rights clause in FAR 52.227-19.
  
 Gaussian, Inc.
 340 Quinnipiac St., Bldg. 40, Wallingford CT 06492
  
  
 ---------------------------------------------------------------
 Warning -- This program may not be used in any manner that
 competes with the business of Gaussian, Inc. or will provide
 assistance to any competitor of Gaussian, Inc.  The licensee
 of this program is prohibited from giving any competitor of
 Gaussian, Inc. access to this program.  By using this program,
 the user acknowledges that Gaussian, Inc. is engaged in the
 business of creating and licensing software in the field of
 computational chemistry and represents and warrants to the
 licensee that it is not a competitor of Gaussian, Inc. and that
 it will not use this program in any manner prohibited above.
 ---------------------------------------------------------------
  

 Cite this work as:
 Gaussian 09, Revision A.02,
 M. J. Frisch, G. W. Trucks, H. B. Schlegel, G. E. Scuseria, 
 M. A. Robb, J. R. Cheeseman, G. Scalmani, V. Barone, B. Mennucci, 
 G. A. Petersson, H. Nakatsuji, M. Caricato, X. Li, H. P. Hratchian, 
 A. F. Izmaylov, J. Bloino, G. Zheng, J. L. Sonnenberg, M. Hada, 
 M. Ehara, K. Toyota, R. Fukuda, J. Hasegawa, M. Ishida, T. Nakajima, 
 Y. Honda, O. Kitao, H. Nakai, T. Vreven, J. A. Montgomery, Jr., 
 J. E. Peralta, F. Ogliaro, M. Bearpark, J. J. Heyd, E. Brothers, 
 K. N. Kudin, V. N. Staroverov, R. Kobayashi, J. Normand, 
 K. Raghavachari, A. Rendell, J. C. Burant, S. S. Iyengar, J. Tomasi, 
 M. Cossi, N. Rega, J. M. Millam, M. Klene, J. E. Knox, J. B. Cross, 
 V. Bakken, C. Adamo, J. Jaramillo, R. Gomperts, R. E. Stratmann, 
 O. Yazyev, A. J. Austin, R. Cammi, C. Pomelli, J. W. Ochterski, 
 R. L. Martin, K. Morokuma, V. G. Zakrzewski, G. A. Voth, 
 P. Salvador, J. J. Dannenberg, S. Dapprich, A. D. Daniels, 
 O. Farkas, J. B. Foresman, J. V. Ortiz, J. Cioslowski, 
 and D. J. Fox, Gaussian, Inc., Wallingford CT, 2009.
 
 ******************************************
 Gaussian 09:  IA32W-G09RevA.02 11-Jun-2009
                05-May-2012 
 ******************************************
 %chk=C:\gtest\boron\B11-.chk
 -----------------------
 # HF/sto-3g pop=nboread
 -----------------------
 1/38=1/1;
 2/12=2,17=6,18=5,40=1/2;
 3/6=3,11=9,16=1,25=1,30=1/1,2,3;
 4//1;
 5/5=2,38=5/2;
 6/7=2,8=2,9=2,10=2,28=1,40=1/1,7;
 99/5=1,9=1/99;
 --------------------
 b3lyp/6-311+G* opted
 --------------------
 Symbolic Z-matrix:
 Charge = -1 Multiplicity = 1
 B                     0.        0.88548   0.02741 
 B                     0.        0.78898  -1.81539 
 B                     0.       -0.78898  -1.81539 
 B                     0.       -0.88548   0.02741 
 B                     0.       -2.14952  -1.1193 
 B                     0.        2.14952  -1.1193 
 B                     0.        0.        1.7561 
 B                     0.        1.5597    1.61968 
 B                     0.       -1.5597    1.61968 
 B                     0.        2.50723   0.40955 
 B                     0.       -2.50723   0.40955 
 
                          Input orientation:                          
 ---------------------------------------------------------------------
 Center     Atomic      Atomic             Coordinates (Angstroms)
 Number     Number       Type             X           Y           Z
 ---------------------------------------------------------------------
      1          5           0        0.000000    0.885480    0.027408
      2          5           0        0.000000    0.788980   -1.815387
      3          5           0        0.000000   -0.788980   -1.815387
      4          5           0        0.000000   -0.885480    0.027408
      5          5           0        0.000000   -2.149520   -1.119299
      6          5           0        0.000000    2.149520   -1.119299
      7          5           0        0.000000    0.000000    1.756103
      8          5           0        0.000000    1.559697    1.619680
      9          5           0        0.000000   -1.559697    1.619680
     10          5           0        0.000000    2.507231    0.409546
     11          5           0        0.000000   -2.507231    0.409546
 ---------------------------------------------------------------------
                    Distance matrix (angstroms):
                    1          2          3          4          5
     1  B    0.000000
     2  B    1.845320   0.000000
     3  B    2.489922   1.577960   0.000000
     4  B    1.770960   2.489922   1.845320   0.000000
     5  B    3.244405   3.019821   1.528269   1.706673   0.000000
     6  B    1.706673   1.528269   3.019821   3.244405   4.299040
     7  B    1.942282   3.657599   3.657599   1.942282   3.590038
     8  B    1.729132   3.520467   4.161246   2.917914   4.610889
     9  B    2.917914   4.161246   3.520467   1.729132   2.801767
    10  B    1.666165   2.811177   3.976850   3.414164   4.901295
    11  B    3.414164   3.976850   2.811177   1.666165   1.570135
                    6          7          8          9         10
     6  B    0.000000
     7  B    3.590038   0.000000
     8  B    2.801767   1.565652   0.000000
     9  B    4.610889   1.565652   3.119394   0.000000
    10  B    1.570135   2.845949   1.536960   4.243151   0.000000
    11  B    4.901295   2.845949   4.243151   1.536960   5.014462
                   11
    11  B    0.000000
 Stoichiometry    B11(1-)
 Framework group  C2V[C2(B),SGV(B10)]
 Deg. of freedom    10
 Full point group                 C2V     NOp   4
 Largest Abelian subgroup         C2V     NOp   4
 Largest concise Abelian subgroup C2      NOp   2
                         Standard orientation:                         
 ---------------------------------------------------------------------
 Center     Atomic      Atomic             Coordinates (Angstroms)
 Number     Number       Type             X           Y           Z
 ---------------------------------------------------------------------
      1          5           0        0.000000    0.885480    0.027408
      2          5           0        0.000000    0.788980   -1.815387
      3          5           0        0.000000   -0.788980   -1.815387
      4          5           0        0.000000   -0.885480    0.027408
      5          5           0        0.000000   -2.149520   -1.119299
      6          5           0        0.000000    2.149520   -1.119299
      7          5           0        0.000000    0.000000    1.756103
      8          5           0        0.000000    1.559697    1.619680
      9          5           0        0.000000   -1.559697    1.619680
     10          5           0        0.000000    2.507231    0.409546
     11          5           0        0.000000   -2.507231    0.409546
 ---------------------------------------------------------------------
 Rotational constants (GHZ):      2.5840697      1.5565286      0.9714003
 Standard basis: STO-3G (5D, 7F)
 There are    23 symmetry adapted basis functions of A1  symmetry.
 There are     5 symmetry adapted basis functions of A2  symmetry.
 There are     6 symmetry adapted basis functions of B1  symmetry.
 There are    21 symmetry adapted basis functions of B2  symmetry.
 Integral buffers will be    262144 words long.
 Raffenetti 1 integral format.
 Two-electron integral symmetry is turned on.
    55 basis functions,   165 primitive gaussians,    55 cartesian basis functions
    28 alpha electrons       28 beta electrons
       nuclear repulsion energy       293.7528004291 Hartrees.
 NAtoms=   11 NActive=   11 NUniq=    6 SFac= 2.52D+00 NAtFMM=   80 NAOKFM=F Big=F
 One-electron integrals computed using PRISM.
 NBasis=    55 RedAO= T  NBF=    23     5     6    21
 NBsUse=    55 1.00D-06 NBFU=    23     5     6    21
 Harris functional with IExCor=  205 diagonalized for initial guess.
 ExpMin= 1.69D-01 ExpMax= 4.88D+01 ExpMxC= 4.88D+01 IAcc=1 IRadAn=         1 AccDes= 0.00D+00
 HarFok:  IExCor=  205 AccDes= 0.00D+00 IRadAn=         1 IDoV= 1
 ScaDFX=  1.000000  1.000000  1.000000  1.000000
 FoFCou: FMM=F IPFlag=           0 FMFlag=      100000 FMFlg1=           0
         NFxFlg=           0 DoJE=T BraDBF=F KetDBF=T FulRan=T
         Omega=  0.000000  0.000000  1.000000  0.000000  0.000000 ICntrl=     500 IOpCl=  0
         NMat0=    1 NMatS0=    1 NMatT0=    0 NMatD0=    1 NMtDS0=    0 NMtDT0=    0
         I1Cent=           4 NGrid=           0.
 Petite list used in FoFCou.
 Initial guess orbital symmetries:
       Occupied  (B2) (A1) (B2) (A1) (B2) (A1) (A1) (B2) (A1) (B2)
                 (A1) (A1) (B2) (A1) (A1) (B2) (B2) (A1) (A1) (B2)
                 (A1) (B1) (A1) (A2) (B2) (A1) (B1) (B2)
       Virtual   (A2) (B1) (B1) (A1) (B2) (A1) (A2) (B2) (B1) (A1)
                 (A2) (B2) (B1) (A2) (B2) (A1) (A1) (B2) (A1) (B2)
                 (A1) (A1) (B2) (B2) (A1) (B2) (B2)
 The electronic state of the initial guess is 1-A1.
 Requested convergence on RMS density matrix=1.00D-08 within 128 cycles.
 Requested convergence on MAX density matrix=1.00D-06.
 Requested convergence on             energy=1.00D-06.
 No special actions if energy rises.
 Keep R1 ints in memory in canonical form, NReq=2014537.
 SCF Done:  E(RHF) =  -267.535372840     A.U. after   16 cycles
             Convg  =    0.2229D-08             -V/T =  1.9879

 **********************************************************************

            Population analysis using the SCF density.

 **********************************************************************

 Orbital symmetries:
       Occupied  (B2) (A1) (A1) (B2) (A1) (A1) (B2) (B2) (A1) (A1)
                 (B2) (A1) (B2) (A1) (A1) (B2) (B2) (A1) (A1) (B2)
                 (A1) (B1) (B2) (A1) (A1) (A2) (B2) (B1)
       Virtual   (A2) (B1) (B2) (B1) (A1) (A1) (B2) (A2) (B1) (A1)
                 (A2) (B2) (B1) (A2) (A1) (B2) (A1) (B2) (A1) (B2)
                 (A1) (A1) (B2) (B2) (A1) (B2) (B2)
 The electronic state is 1-A1.
 Alpha  occ. eigenvalues --   -7.16625  -7.16618  -7.14782  -7.13655  -7.13655
 Alpha  occ. eigenvalues --   -7.12100  -7.12033  -7.11285  -7.11283  -7.10636
 Alpha  occ. eigenvalues --   -7.10633  -0.67218  -0.61363  -0.53177  -0.44210
 Alpha  occ. eigenvalues --   -0.43385  -0.26761  -0.26549  -0.25106  -0.17592
 Alpha  occ. eigenvalues --   -0.17260  -0.16282  -0.14089  -0.11458  -0.08337
 Alpha  occ. eigenvalues --   -0.04973   0.01750   0.03009
 Alpha virt. eigenvalues --    0.34226   0.34560   0.44614   0.45953   0.46650
 Alpha virt. eigenvalues --    0.49465   0.54203   0.56763   0.58438   0.58707
 Alpha virt. eigenvalues --    0.63959   0.74635   0.76879   0.77465   0.84995
 Alpha virt. eigenvalues --    0.85371   0.90507   0.92359   0.94899   1.08582
 Alpha virt. eigenvalues --    1.10169   1.18252   1.21053   1.25309   1.32570
 Alpha virt. eigenvalues --    1.43328   1.47513
          Condensed to atoms (all electrons):
              1          2          3          4          5          6
     1  B    3.993067   0.160563  -0.007153   0.268483  -0.008491   0.192160
     2  B    0.160563   3.936193   0.499616  -0.007153  -0.012180   0.520595
     3  B   -0.007153   0.499616   3.936193   0.160563   0.520595  -0.012180
     4  B    0.268483  -0.007153   0.160563   3.993067   0.192160  -0.008491
     5  B   -0.008491  -0.012180   0.520595   0.192160   4.013453   0.000117
     6  B    0.192160   0.520595  -0.012180  -0.008491   0.000117   4.013453
     7  B    0.104502  -0.002670  -0.002670   0.104502  -0.000865  -0.000865
     8  B    0.183453  -0.003590   0.000230  -0.016434   0.000211  -0.025707
     9  B   -0.016434   0.000230  -0.003590   0.183453  -0.025707   0.000211
    10  B    0.199748  -0.022575   0.000663  -0.005767   0.000071   0.451677
    11  B   -0.005767   0.000663  -0.022575   0.199748   0.451677   0.000071
              7          8          9         10         11
     1  B    0.104502   0.183453  -0.016434   0.199748  -0.005767
     2  B   -0.002670  -0.003590   0.000230  -0.022575   0.000663
     3  B   -0.002670   0.000230  -0.003590   0.000663  -0.022575
     4  B    0.104502  -0.016434   0.183453  -0.005767   0.199748
     5  B   -0.000865   0.000211  -0.025707   0.000071   0.451677
     6  B   -0.000865  -0.025707   0.000211   0.451677   0.000071
     7  B    3.882826   0.492640   0.492640  -0.021256  -0.021256
     8  B    0.492640   4.020252  -0.007284   0.489903   0.000374
     9  B    0.492640  -0.007284   4.020252   0.000374   0.489903
    10  B   -0.021256   0.489903   0.000374   3.994480   0.000005
    11  B   -0.021256   0.000374   0.489903   0.000005   3.994480
 Mulliken atomic charges:
              1
     1  B   -0.064131
     2  B   -0.069692
     3  B   -0.069692
     4  B   -0.064131
     5  B   -0.131040
     6  B   -0.131040
     7  B   -0.027531
     8  B   -0.134048
     9  B   -0.134048
    10  B   -0.087324
    11  B   -0.087324
 Sum of Mulliken atomic charges =  -1.00000
 Mulliken charges with hydrogens summed into heavy atoms:
              1
     1  B   -0.064131
     2  B   -0.069692
     3  B   -0.069692
     4  B   -0.064131
     5  B   -0.131040
     6  B   -0.131040
     7  B   -0.027531
     8  B   -0.134048
     9  B   -0.134048
    10  B   -0.087324
    11  B   -0.087324
 Sum of Mulliken charges with hydrogens summed into heavy atoms =  -1.00000
 Electronic spatial extent (au):  <R**2>=            995.0018
 Charge=             -1.0000 electrons
 Dipole moment (field-independent basis, Debye):
    X=              0.0000    Y=              0.0000    Z=             -0.0991  Tot=              0.0991
 Quadrupole moment (field-independent basis, Debye-Ang):
   XX=            -53.7222   YY=            -77.2342   ZZ=            -72.4484
   XY=              0.0000   XZ=              0.0000   YZ=              0.0000
 Traceless Quadrupole moment (field-independent basis, Debye-Ang):
   XX=             14.0794   YY=             -9.4326   ZZ=             -4.6468
   XY=              0.0000   XZ=              0.0000   YZ=              0.0000
 Octapole moment (field-independent basis, Debye-Ang**2):
  XXX=              0.0000  YYY=              0.0000  ZZZ=             -4.3981  XYY=              0.0000
  XXY=              0.0000  XXZ=              0.3157  XZZ=              0.0000  YZZ=              0.0000
  YYZ=              1.5306  XYZ=              0.0000
 Hexadecapole moment (field-independent basis, Debye-Ang**3):
 XXXX=            -56.5686 YYYY=          -1097.1048 ZZZZ=           -667.5212 XXXY=              0.0000
 XXXZ=              0.0000 YYYX=              0.0000 YYYZ=              0.0000 ZZZX=              0.0000
 ZZZY=              0.0000 XXYY=           -162.3083 XXZZ=           -108.9302 YYZZ=           -306.4996
 XXYZ=              0.0000 YYXZ=              0.0000 ZZXY=              0.0000
 N-N= 2.937528004291D+02 E-N=-1.227854955655D+03  KE= 2.708046924243D+02
 Symmetry A1   KE= 1.455964463796D+02
 Symmetry A2   KE= 1.676805566476D+00
 Symmetry B1   KE= 3.258726381544D+00
 Symmetry B2   KE= 1.202727140966D+02
 ******************************Gaussian NBO Version 3.1******************************
             N A T U R A L   A T O M I C   O R B I T A L   A N D
          N A T U R A L   B O N D   O R B I T A L   A N A L Y S I S
 ******************************Gaussian NBO Version 3.1******************************

       /RESON  / : Allow strongly delocalized NBO set
       /AONAO  / : Print the AO to NAO transformation
       /DMNAO  / : Print the NAO density matrix

 Analyzing the SCF density

 Job title: b3lyp/6-311+G* opted                                            

 Storage needed:      9504 in NPA,     12391 in NBO ( 196607552 available)


 NATURAL POPULATIONS:  Natural atomic orbital occupancies 
                                                          
   NAO  Atom  No  lang   Type(AO)    Occupancy      Energy
 ----------------------------------------------------------
     1    B    1  S      Cor( 1S)     1.99979      -7.13196
     2    B    1  S      Val( 2S)     0.87949       0.20970
     3    B    1  px     Val( 2p)     0.59078       0.35177
     4    B    1  py     Val( 2p)     0.78664       0.50314
     5    B    1  pz     Val( 2p)     0.83108       0.46093

     6    B    2  S      Cor( 1S)     1.99952      -7.07402
     7    B    2  S      Val( 2S)     1.06558       0.18363
     8    B    2  px     Val( 2p)     0.62239       0.38439
     9    B    2  py     Val( 2p)     0.84823       0.58563
    10    B    2  pz     Val( 2p)     0.52422       0.48416

    11    B    3  S      Cor( 1S)     1.99952      -7.07402
    12    B    3  S      Val( 2S)     1.06558       0.18363
    13    B    3  px     Val( 2p)     0.62239       0.38439
    14    B    3  py     Val( 2p)     0.84823       0.58563
    15    B    3  pz     Val( 2p)     0.52422       0.48416

    16    B    4  S      Cor( 1S)     1.99979      -7.13196
    17    B    4  S      Val( 2S)     0.87949       0.20970
    18    B    4  px     Val( 2p)     0.59078       0.35177
    19    B    4  py     Val( 2p)     0.78664       0.50314
    20    B    4  pz     Val( 2p)     0.83108       0.46093

    21    B    5  S      Cor( 1S)     1.99949      -7.06506
    22    B    5  S      Val( 2S)     1.09051       0.18486
    23    B    5  px     Val( 2p)     0.49265       0.41296
    24    B    5  py     Val( 2p)     0.73341       0.49825
    25    B    5  pz     Val( 2p)     0.82891       0.50061

    26    B    6  S      Cor( 1S)     1.99949      -7.06506
    27    B    6  S      Val( 2S)     1.09051       0.18486
    28    B    6  px     Val( 2p)     0.49265       0.41296
    29    B    6  py     Val( 2p)     0.73341       0.49825
    30    B    6  pz     Val( 2p)     0.82891       0.50061

    31    B    7  S      Cor( 1S)     1.99951      -7.10452
    32    B    7  S      Val( 2S)     1.03168       0.17587
    33    B    7  px     Val( 2p)     0.63463       0.36793
    34    B    7  py     Val( 2p)     0.84257       0.59184
    35    B    7  pz     Val( 2p)     0.49555       0.46816

    36    B    8  S      Cor( 1S)     1.99952      -7.05925
    37    B    8  S      Val( 2S)     1.08504       0.18843
    38    B    8  px     Val( 2p)     0.51382       0.41129
    39    B    8  py     Val( 2p)     0.81334       0.53541
    40    B    8  pz     Val( 2p)     0.74230       0.47515

    41    B    9  S      Cor( 1S)     1.99952      -7.05925
    42    B    9  S      Val( 2S)     1.08504       0.18843
    43    B    9  px     Val( 2p)     0.51382       0.41129
    44    B    9  py     Val( 2p)     0.81334       0.53541
    45    B    9  pz     Val( 2p)     0.74230       0.47515

    46    B   10  S      Cor( 1S)     1.99948      -7.08738
    47    B   10  S      Val( 2S)     1.09422       0.17284
    48    B   10  px     Val( 2p)     0.46305       0.40560
    49    B   10  py     Val( 2p)     0.62915       0.47154
    50    B   10  pz     Val( 2p)     0.86544       0.52333

    51    B   11  S      Cor( 1S)     1.99948      -7.08738
    52    B   11  S      Val( 2S)     1.09422       0.17284
    53    B   11  px     Val( 2p)     0.46305       0.40560
    54    B   11  py     Val( 2p)     0.62915       0.47154
    55    B   11  pz     Val( 2p)     0.86544       0.52333


 Summary of Natural Population Analysis:                  
                                                          
                                       Natural Population 
                Natural  -----------------------------------------------
    Atom  No    Charge         Core      Valence    Rydberg      Total
 -----------------------------------------------------------------------
      B    1   -0.08778      1.99979     3.08799    0.00000     5.08778
      B    2   -0.05994      1.99952     3.06042    0.00000     5.05994
      B    3   -0.05994      1.99952     3.06042    0.00000     5.05994
      B    4   -0.08778      1.99979     3.08799    0.00000     5.08778
      B    5   -0.14496      1.99949     3.14547    0.00000     5.14496
      B    6   -0.14496      1.99949     3.14547    0.00000     5.14496
      B    7   -0.00393      1.99951     3.00442    0.00000     5.00393
      B    8   -0.15402      1.99952     3.15449    0.00000     5.15402
      B    9   -0.15402      1.99952     3.15449    0.00000     5.15402
      B   10   -0.05133      1.99948     3.05185    0.00000     5.05133
      B   11   -0.05133      1.99948     3.05185    0.00000     5.05133
 =======================================================================
   * Total *   -1.00000     21.99511    34.00489    0.00000    56.00000

                                 Natural Population      
 --------------------------------------------------------
   Core                      21.99511 ( 99.9778% of  22)
   Valence                   34.00489 (100.0144% of  34)
   Natural Minimal Basis     56.00000 (100.0000% of  56)
   Natural Rydberg Basis      0.00000 (  0.0000% of  56)
 --------------------------------------------------------

    Atom  No          Natural Electron Configuration
 ----------------------------------------------------------------------------
      B    1      [core]2S( 0.88)2p( 2.21)
      B    2      [core]2S( 1.07)2p( 1.99)
      B    3      [core]2S( 1.07)2p( 1.99)
      B    4      [core]2S( 0.88)2p( 2.21)
      B    5      [core]2S( 1.09)2p( 2.05)
      B    6      [core]2S( 1.09)2p( 2.05)
      B    7      [core]2S( 1.03)2p( 1.97)
      B    8      [core]2S( 1.09)2p( 2.07)
      B    9      [core]2S( 1.09)2p( 2.07)
      B   10      [core]2S( 1.09)2p( 1.96)
      B   11      [core]2S( 1.09)2p( 1.96)


 NAOs in the AO basis:                                                         

          AO         1       2       3       4       5       6       7       8
      ---------- ------- ------- ------- ------- ------- ------- ------- -------
   1.  B 1 (S)    1.0022 -0.3201  0.0000 -0.0089 -0.0016  0.0019  0.0222  0.0000
   2.  B 1 (S)    0.0102  1.5197  0.0000  0.0862  0.0131 -0.0043 -0.1330  0.0000
   3.  B 1 (px)   0.0000  0.0000  1.0494  0.0000  0.0000  0.0000  0.0000 -0.0637
   4.  B 1 (py)   0.0074  0.0660  0.0000  1.3505 -0.0012  0.0051  0.0463  0.0000
   5.  B 1 (pz)   0.0009  0.0100  0.0000 -0.0012  1.2997  0.0107  0.1525  0.0000
   6.  B 2 (S)    0.0026  0.0253  0.0000 -0.0062 -0.0293  1.0061 -0.2944  0.0000
   7.  B 2 (S)   -0.0077 -0.1380  0.0000  0.0627  0.2068 -0.0018  1.4930  0.0000
   8.  B 2 (px)   0.0000  0.0000 -0.0567  0.0000  0.0000  0.0000  0.0000  1.0492
   9.  B 2 (py)   0.0031  0.0284  0.0000 -0.0109 -0.0218  0.0011 -0.0052  0.0000
  10.  B 2 (pz)  -0.0111 -0.1334  0.0000  0.0388  0.1756  0.0099  0.1304  0.0000
  11.  B 3 (S)   -0.0005  0.0011  0.0000 -0.0026 -0.0038  0.0057  0.0410  0.0000
  12.  B 3 (S)    0.0051  0.0238  0.0000 -0.0027 -0.0017 -0.0215 -0.2949  0.0000
  13.  B 3 (px)   0.0000  0.0000 -0.0055  0.0000  0.0000  0.0000  0.0000 -0.1196
  14.  B 3 (py)   0.0020  0.0069  0.0000  0.0083 -0.0021 -0.0301 -0.2654  0.0000
  15.  B 3 (pz)   0.0023  0.0042  0.0000  0.0040  0.0104 -0.0011 -0.0010  0.0000
  16.  B 4 (S)    0.0033  0.0284  0.0000 -0.0306 -0.0019 -0.0007  0.0003  0.0000
  17.  B 4 (S)   -0.0120 -0.1827  0.0000  0.2569  0.0140  0.0055  0.0230  0.0000
  18.  B 4 (px)   0.0000  0.0000 -0.0833  0.0000  0.0000  0.0000  0.0000 -0.0062
  19.  B 4 (py)  -0.0192 -0.1965  0.0000  0.2472  0.0087  0.0022  0.0020  0.0000
  20.  B 4 (pz)   0.0009  0.0107  0.0000 -0.0087 -0.0569 -0.0028 -0.0013  0.0000
  21.  B 5 (S)    0.0000  0.0000  0.0000 -0.0006  0.0012  0.0001  0.0006  0.0000
  22.  B 5 (S)   -0.0010 -0.0036  0.0000  0.0057 -0.0134 -0.0042 -0.0235  0.0000
  23.  B 5 (px)   0.0000  0.0000  0.0065  0.0000  0.0000  0.0000  0.0000  0.0150
  24.  B 5 (py)  -0.0004 -0.0011  0.0000  0.0031 -0.0088 -0.0020 -0.0128  0.0000
  25.  B 5 (pz)  -0.0005 -0.0039  0.0000  0.0042 -0.0037  0.0027  0.0191  0.0000
  26.  B 6 (S)    0.0039  0.0284  0.0000  0.0213 -0.0205  0.0065  0.0412  0.0000
  27.  B 6 (S)   -0.0119 -0.1630  0.0000 -0.1827  0.1682 -0.0264 -0.3109  0.0000
  28.  B 6 (px)   0.0000  0.0000 -0.0696  0.0000  0.0000  0.0000  0.0000 -0.1251
  29.  B 6 (py)   0.0143  0.1320  0.0000  0.1218 -0.1072  0.0301  0.2334  0.0000
  30.  B 6 (pz)  -0.0104 -0.1030  0.0000 -0.0973  0.0941  0.0158  0.1454  0.0000
  31.  B 7 (S)    0.0014  0.0176  0.0000 -0.0116  0.0208  0.0001  0.0002  0.0000
  32.  B 7 (S)   -0.0017 -0.0804  0.0000  0.0877 -0.1295 -0.0004 -0.0022  0.0000
  33.  B 7 (px)   0.0000  0.0000 -0.0445  0.0000  0.0000  0.0000  0.0000  0.0038
  34.  B 7 (py)  -0.0014 -0.0268  0.0000  0.0308 -0.0364 -0.0001 -0.0012  0.0000
  35.  B 7 (pz)   0.0060  0.0883  0.0000 -0.0647  0.1155  0.0003  0.0020  0.0000
  36.  B 8 (S)    0.0037  0.0285  0.0000  0.0094  0.0280  0.0002  0.0020  0.0000
  37.  B 8 (S)   -0.0115 -0.1624  0.0000 -0.0715 -0.2271 -0.0028 -0.0252  0.0000
  38.  B 8 (px)   0.0000  0.0000 -0.0677  0.0000  0.0000  0.0000  0.0000  0.0036
  39.  B 8 (py)   0.0090  0.0819  0.0000  0.0312  0.0859  0.0003  0.0042  0.0000
  40.  B 8 (pz)   0.0145  0.1451  0.0000  0.0569  0.1732  0.0019  0.0172  0.0000
  41.  B 9 (S)   -0.0004 -0.0015  0.0000  0.0006 -0.0012  0.0000  0.0001  0.0000
  42.  B 9 (S)    0.0020  0.0184  0.0000 -0.0148  0.0199  0.0001 -0.0018  0.0000
  43.  B 9 (px)   0.0000  0.0000  0.0075  0.0000  0.0000  0.0000  0.0000  0.0005
  44.  B 9 (py)   0.0014  0.0105  0.0000 -0.0058  0.0096  0.0001 -0.0002  0.0000
  45.  B 9 (pz)  -0.0014 -0.0118  0.0000  0.0088 -0.0146 -0.0001  0.0006  0.0000
  46.  B10 (S)    0.0043  0.0297  0.0000  0.0294  0.0068 -0.0002  0.0002  0.0000
  47.  B10 (S)   -0.0138 -0.1781  0.0000 -0.2666 -0.0575 -0.0013 -0.0062  0.0000
  48.  B10 (px)   0.0000  0.0000 -0.0739  0.0000  0.0000  0.0000  0.0000  0.0169
  49.  B10 (py)   0.0193  0.1737  0.0000  0.2146  0.0462 -0.0024 -0.0144  0.0000
  50.  B10 (pz)   0.0043  0.0399  0.0000  0.0479  0.0157  0.0017  0.0126  0.0000
  51.  B11 (S)    0.0002  0.0018  0.0000 -0.0025 -0.0002  0.0001  0.0003  0.0000
  52.  B11 (S)   -0.0031 -0.0262  0.0000  0.0310  0.0015 -0.0006 -0.0053  0.0000
  53.  B11 (px)   0.0000  0.0000  0.0066  0.0000  0.0000  0.0000  0.0000 -0.0009
  54.  B11 (py)  -0.0021 -0.0190  0.0000  0.0230  0.0014  0.0000 -0.0009  0.0000
  55.  B11 (pz)   0.0004  0.0035  0.0000 -0.0048 -0.0012  0.0005  0.0036  0.0000

          AO         9      10      11      12      13      14      15      16
      ---------- ------- ------- ------- ------- ------- ------- ------- -------
   1.  B 1 (S)   -0.0044  0.0266 -0.0007  0.0003  0.0000  0.0010  0.0025  0.0033
   2.  B 1 (S)    0.0417 -0.1958  0.0055  0.0230  0.0000  0.0101  0.0062 -0.0120
   3.  B 1 (px)   0.0000  0.0000  0.0000  0.0000 -0.0062  0.0000  0.0000  0.0000
   4.  B 1 (py)  -0.0122  0.0436 -0.0022 -0.0020  0.0000  0.0093  0.0045  0.0192
   5.  B 1 (pz)  -0.0245  0.1972 -0.0028 -0.0013  0.0000 -0.0023  0.0117  0.0009
   6.  B 2 (S)    0.0035 -0.0269  0.0057  0.0410  0.0000  0.0379 -0.0015 -0.0005
   7.  B 2 (S)   -0.0080  0.1984 -0.0215 -0.2949  0.0000 -0.4035 -0.0015  0.0051
   8.  B 2 (px)   0.0000  0.0000  0.0000  0.0000 -0.1196  0.0000  0.0000  0.0000
   9.  B 2 (py)   1.4164  0.0756  0.0301  0.2654  0.0000  0.3379 -0.0149 -0.0020
  10.  B 2 (pz)   0.0756  1.1589 -0.0011 -0.0010  0.0000  0.0149 -0.1156  0.0023
  11.  B 3 (S)   -0.0379 -0.0015  1.0061 -0.2944  0.0000 -0.0035 -0.0269  0.0026
  12.  B 3 (S)    0.4035 -0.0015 -0.0018  1.4930  0.0000  0.0080  0.1984 -0.0077
  13.  B 3 (px)   0.0000  0.0000  0.0000  0.0000  1.0492  0.0000  0.0000  0.0000
  14.  B 3 (py)   0.3379  0.0149 -0.0011  0.0052  0.0000  1.4164 -0.0756 -0.0031
  15.  B 3 (pz)  -0.0149 -0.1156  0.0099  0.1304  0.0000 -0.0756  1.1589 -0.0111
  16.  B 4 (S)   -0.0010  0.0025  0.0019  0.0222  0.0000  0.0044  0.0266  1.0022
  17.  B 4 (S)   -0.0101  0.0062 -0.0043 -0.1330  0.0000 -0.0417 -0.1958  0.0102
  18.  B 4 (px)   0.0000  0.0000  0.0000  0.0000 -0.0637  0.0000  0.0000  0.0000
  19.  B 4 (py)   0.0093 -0.0045 -0.0051 -0.0463  0.0000 -0.0122 -0.0436 -0.0074
  20.  B 4 (pz)   0.0023  0.0117  0.0107  0.1525  0.0000  0.0245  0.1972  0.0009
  21.  B 5 (S)   -0.0020 -0.0010  0.0065  0.0412  0.0000 -0.0355  0.0113  0.0039
  22.  B 5 (S)    0.0360  0.0214 -0.0264 -0.3109  0.0000  0.4102 -0.1651 -0.0119
  23.  B 5 (px)   0.0000  0.0000  0.0000  0.0000 -0.1251  0.0000  0.0000  0.0000
  24.  B 5 (py)   0.0234  0.0172 -0.0301 -0.2334  0.0000  0.2559 -0.1469 -0.0143
  25.  B 5 (pz)  -0.0248  0.0045  0.0158  0.1454  0.0000 -0.2060 -0.0078 -0.0104
  26.  B 6 (S)    0.0355  0.0113  0.0001  0.0006  0.0000  0.0020 -0.0010  0.0000
  27.  B 6 (S)   -0.4102 -0.1651 -0.0042 -0.0235  0.0000 -0.0360  0.0214 -0.0010
  28.  B 6 (px)   0.0000  0.0000  0.0000  0.0000  0.0150  0.0000  0.0000  0.0000
  29.  B 6 (py)   0.2559  0.1469  0.0020  0.0128  0.0000  0.0234 -0.0172  0.0004
  30.  B 6 (pz)   0.2060 -0.0078  0.0027  0.0191  0.0000  0.0248  0.0045 -0.0005
  31.  B 7 (S)    0.0003  0.0003  0.0001  0.0002  0.0000 -0.0003  0.0003  0.0014
  32.  B 7 (S)   -0.0024 -0.0023 -0.0004 -0.0022  0.0000  0.0024 -0.0023 -0.0017
  33.  B 7 (px)   0.0000  0.0000  0.0000  0.0000  0.0038  0.0000  0.0000  0.0000
  34.  B 7 (py)  -0.0004 -0.0016  0.0001  0.0012  0.0000 -0.0004  0.0016  0.0014
  35.  B 7 (pz)   0.0015  0.0028  0.0003  0.0020  0.0000 -0.0015  0.0028  0.0060
  36.  B 8 (S)    0.0002  0.0023  0.0000  0.0001  0.0000  0.0000  0.0002 -0.0004
  37.  B 8 (S)   -0.0038 -0.0271  0.0001 -0.0018  0.0000 -0.0009 -0.0026  0.0020
  38.  B 8 (px)   0.0000  0.0000  0.0000  0.0000  0.0005  0.0000  0.0000  0.0000
  39.  B 8 (py)  -0.0038  0.0073 -0.0001  0.0002  0.0000 -0.0004  0.0009 -0.0014
  40.  B 8 (pz)   0.0019  0.0191 -0.0001  0.0006  0.0000  0.0003  0.0012 -0.0014
  41.  B 9 (S)    0.0000  0.0002  0.0002  0.0020  0.0000 -0.0002  0.0023  0.0037
  42.  B 9 (S)    0.0009 -0.0026 -0.0028 -0.0252  0.0000  0.0038 -0.0271 -0.0115
  43.  B 9 (px)   0.0000  0.0000  0.0000  0.0000  0.0036  0.0000  0.0000  0.0000
  44.  B 9 (py)  -0.0004 -0.0009 -0.0003 -0.0042  0.0000 -0.0038 -0.0073 -0.0090
  45.  B 9 (pz)  -0.0003  0.0012  0.0019  0.0172  0.0000 -0.0019  0.0191  0.0145
  46.  B10 (S)    0.0020 -0.0008  0.0001  0.0003  0.0000  0.0005  0.0001  0.0002
  47.  B10 (S)   -0.0228  0.0203 -0.0006 -0.0053  0.0000 -0.0075 -0.0038 -0.0031
  48.  B10 (px)   0.0000  0.0000  0.0000  0.0000 -0.0009  0.0000  0.0000  0.0000
  49.  B10 (py)  -0.0098 -0.0157  0.0000  0.0009  0.0000  0.0014  0.0024  0.0021
  50.  B10 (pz)   0.0262 -0.0061  0.0005  0.0036  0.0000  0.0048  0.0011  0.0004
  51.  B11 (S)   -0.0005  0.0001 -0.0002  0.0002  0.0000 -0.0020 -0.0008  0.0043
  52.  B11 (S)    0.0075 -0.0038 -0.0013 -0.0062  0.0000  0.0228  0.0203 -0.0138
  53.  B11 (px)   0.0000  0.0000  0.0000  0.0000  0.0169  0.0000  0.0000  0.0000
  54.  B11 (py)   0.0014 -0.0024  0.0024  0.0144  0.0000 -0.0098  0.0157 -0.0193
  55.  B11 (pz)  -0.0048  0.0011  0.0017  0.0126  0.0000 -0.0262 -0.0061  0.0043

          AO        17      18      19      20      21      22      23      24
      ---------- ------- ------- ------- ------- ------- ------- ------- -------
   1.  B 1 (S)    0.0284  0.0000  0.0306 -0.0019 -0.0001 -0.0003  0.0000 -0.0003
   2.  B 1 (S)   -0.1827  0.0000 -0.2569  0.0140 -0.0007 -0.0035  0.0000 -0.0016
   3.  B 1 (px)   0.0000 -0.0833  0.0000  0.0000  0.0000  0.0000  0.0071  0.0000
   4.  B 1 (py)   0.1965  0.0000  0.2472 -0.0087  0.0005  0.0042  0.0000  0.0034
   5.  B 1 (pz)   0.0107  0.0000  0.0087 -0.0569 -0.0011 -0.0099  0.0000 -0.0097
   6.  B 2 (S)    0.0011  0.0000  0.0026 -0.0038  0.0000  0.0005  0.0000  0.0009
   7.  B 2 (S)    0.0238  0.0000  0.0027 -0.0017 -0.0041 -0.0234  0.0000 -0.0190
   8.  B 2 (px)   0.0000 -0.0055  0.0000  0.0000  0.0000  0.0000  0.0147  0.0000
   9.  B 2 (py)  -0.0069  0.0000  0.0083  0.0021  0.0035  0.0237  0.0000  0.0229
  10.  B 2 (pz)   0.0042  0.0000 -0.0040  0.0104  0.0022  0.0141  0.0000  0.0169
  11.  B 3 (S)    0.0253  0.0000  0.0062 -0.0293  0.0061  0.0391  0.0000  0.0267
  12.  B 3 (S)   -0.1380  0.0000 -0.0627  0.2068 -0.0245 -0.3105  0.0000 -0.3467
  13.  B 3 (px)   0.0000 -0.0567  0.0000  0.0000  0.0000  0.0000 -0.1223  0.0000
  14.  B 3 (py)  -0.0284  0.0000 -0.0109  0.0218  0.0325  0.2697  0.0000  0.2502
  15.  B 3 (pz)  -0.1334  0.0000 -0.0388  0.1756 -0.0148 -0.1086  0.0000 -0.1436
  16.  B 4 (S)   -0.3201  0.0000  0.0089 -0.0016  0.0027  0.0231  0.0000  0.0202
  17.  B 4 (S)    1.5197  0.0000 -0.0862  0.0131 -0.0063 -0.1570  0.0000 -0.1894
  18.  B 4 (px)   0.0000  1.0494  0.0000  0.0000  0.0000  0.0000 -0.0764  0.0000
  19.  B 4 (py)  -0.0660  0.0000  1.3505  0.0012  0.0125  0.1348  0.0000  0.1337
  20.  B 4 (pz)   0.0100  0.0000  0.0012  1.2997  0.0109  0.1240  0.0000  0.1177
  21.  B 5 (S)    0.0284  0.0000 -0.0213 -0.0205  1.0058 -0.2964  0.0000 -0.0315
  22.  B 5 (S)   -0.1630  0.0000  0.1827  0.1682  0.0011  1.5199  0.0000  0.2566
  23.  B 5 (px)   0.0000 -0.0696  0.0000  0.0000  0.0000  0.0000  1.0508  0.0000
  24.  B 5 (py)  -0.1320  0.0000  0.1218  0.1072  0.0151  0.1723  0.0000  1.2690
  25.  B 5 (pz)  -0.1030  0.0000  0.0973  0.0941  0.0084  0.1121  0.0000 -0.0857
  26.  B 6 (S)    0.0000  0.0000  0.0006  0.0012  0.0001  0.0007  0.0000  0.0007
  27.  B 6 (S)   -0.0036  0.0000 -0.0057 -0.0134 -0.0011 -0.0087  0.0000 -0.0093
  28.  B 6 (px)   0.0000  0.0065  0.0000  0.0000  0.0000  0.0000 -0.0026  0.0000
  29.  B 6 (py)   0.0011  0.0000  0.0031  0.0088  0.0008  0.0063  0.0000  0.0067
  30.  B 6 (pz)  -0.0039  0.0000 -0.0042 -0.0037  0.0001  0.0006  0.0000  0.0005
  31.  B 7 (S)    0.0176  0.0000  0.0116  0.0208  0.0003  0.0022  0.0000  0.0016
  32.  B 7 (S)   -0.0804  0.0000 -0.0877 -0.1295 -0.0028 -0.0215  0.0000 -0.0132
  33.  B 7 (px)   0.0000 -0.0445  0.0000  0.0000  0.0000  0.0000  0.0027  0.0000
  34.  B 7 (py)   0.0268  0.0000  0.0308  0.0364  0.0012  0.0089  0.0000  0.0029
  35.  B 7 (pz)   0.0883  0.0000  0.0647  0.1155  0.0017  0.0132  0.0000  0.0116
  36.  B 8 (S)   -0.0015  0.0000 -0.0006 -0.0012  0.0000 -0.0001  0.0000 -0.0002
  37.  B 8 (S)    0.0184  0.0000  0.0148  0.0199  0.0003  0.0024  0.0000  0.0030
  38.  B 8 (px)   0.0000  0.0075  0.0000  0.0000  0.0000  0.0000 -0.0006  0.0000
  39.  B 8 (py)  -0.0105  0.0000 -0.0058 -0.0096 -0.0001 -0.0008  0.0000 -0.0014
  40.  B 8 (pz)  -0.0118  0.0000 -0.0088 -0.0146 -0.0003 -0.0022  0.0000 -0.0020
  41.  B 9 (S)    0.0285  0.0000 -0.0094  0.0280 -0.0003 -0.0003  0.0000 -0.0016
  42.  B 9 (S)   -0.1624  0.0000  0.0715 -0.2271 -0.0003 -0.0010  0.0000  0.0304
  43.  B 9 (px)   0.0000 -0.0677  0.0000  0.0000  0.0000  0.0000  0.0166  0.0000
  44.  B 9 (py)  -0.0819  0.0000  0.0312 -0.0859  0.0026  0.0194  0.0000 -0.0119
  45.  B 9 (pz)   0.1451  0.0000 -0.0569  0.1732 -0.0014 -0.0071  0.0000 -0.0180
  46.  B10 (S)    0.0018  0.0000  0.0025 -0.0002  0.0000  0.0000  0.0000  0.0000
  47.  B10 (S)   -0.0262  0.0000 -0.0310  0.0015  0.0000 -0.0003  0.0000 -0.0002
  48.  B10 (px)   0.0000  0.0066  0.0000  0.0000  0.0000  0.0000 -0.0004  0.0000
  49.  B10 (py)   0.0190  0.0000  0.0230 -0.0014  0.0000 -0.0001  0.0000 -0.0001
  50.  B10 (pz)   0.0035  0.0000  0.0048 -0.0012  0.0000  0.0000  0.0000  0.0000
  51.  B11 (S)    0.0297  0.0000 -0.0294  0.0068  0.0056  0.0380  0.0000 -0.0149
  52.  B11 (S)   -0.1781  0.0000  0.2666 -0.0575 -0.0213 -0.2784  0.0000  0.1301
  53.  B11 (px)   0.0000 -0.0739  0.0000  0.0000  0.0000  0.0000 -0.1116  0.0000
  54.  B11 (py)  -0.1737  0.0000  0.2146 -0.0462 -0.0054 -0.0301  0.0000 -0.0617
  55.  B11 (pz)   0.0399  0.0000 -0.0479  0.0157  0.0282  0.2493  0.0000 -0.1206

          AO        25      26      27      28      29      30      31      32
      ---------- ------- ------- ------- ------- ------- ------- ------- -------
   1.  B 1 (S)    0.0005  0.0027  0.0231  0.0000 -0.0202  0.0170  0.0011  0.0160
   2.  B 1 (S)   -0.0056 -0.0063 -0.1570  0.0000  0.1894 -0.1478 -0.0002 -0.0778
   3.  B 1 (px)   0.0000  0.0000  0.0000 -0.0764  0.0000  0.0000  0.0000  0.0000
   4.  B 1 (py)   0.0046 -0.0125 -0.1348  0.0000  0.1337 -0.1069  0.0053  0.0650
   5.  B 1 (pz)  -0.0040  0.0109  0.1240  0.0000 -0.1177  0.1034 -0.0053 -0.0959
   6.  B 2 (S)   -0.0019  0.0061  0.0391  0.0000 -0.0267 -0.0215  0.0000  0.0000
   7.  B 2 (S)    0.0284 -0.0245 -0.3105  0.0000  0.3467  0.2161 -0.0002 -0.0022
   8.  B 2 (px)   0.0000  0.0000  0.0000 -0.1223  0.0000  0.0000  0.0000  0.0000
   9.  B 2 (py)  -0.0243 -0.0325 -0.2697  0.0000  0.2502  0.2015 -0.0001 -0.0016
  10.  B 2 (pz)   0.0044 -0.0148 -0.1086  0.0000  0.1436 -0.0076 -0.0001 -0.0015
  11.  B 3 (S)   -0.0215  0.0000  0.0005  0.0000 -0.0009 -0.0019  0.0000  0.0000
  12.  B 3 (S)    0.2161 -0.0041 -0.0234  0.0000  0.0190  0.0284 -0.0002 -0.0022
  13.  B 3 (px)   0.0000  0.0000  0.0000  0.0147  0.0000  0.0000  0.0000  0.0000
  14.  B 3 (py)  -0.2015 -0.0035 -0.0237  0.0000  0.0229  0.0243  0.0001  0.0016
  15.  B 3 (pz)  -0.0076  0.0022  0.0141  0.0000 -0.0169  0.0044 -0.0001 -0.0015
  16.  B 4 (S)    0.0170 -0.0001 -0.0003  0.0000  0.0003  0.0005  0.0011  0.0160
  17.  B 4 (S)   -0.1478 -0.0007 -0.0035  0.0000  0.0016 -0.0056 -0.0002 -0.0778
  18.  B 4 (px)   0.0000  0.0000  0.0000  0.0071  0.0000  0.0000  0.0000  0.0000
  19.  B 4 (py)   0.1069 -0.0005 -0.0042  0.0000  0.0034 -0.0046 -0.0053 -0.0650
  20.  B 4 (pz)   0.1034 -0.0011 -0.0099  0.0000  0.0097 -0.0040 -0.0053 -0.0959
  21.  B 5 (S)   -0.0228  0.0001  0.0007  0.0000 -0.0007  0.0000  0.0002  0.0017
  22.  B 5 (S)    0.1669 -0.0011 -0.0087  0.0000  0.0093  0.0009 -0.0023 -0.0216
  23.  B 5 (px)   0.0000  0.0000  0.0000 -0.0026  0.0000  0.0000  0.0000  0.0000
  24.  B 5 (py)  -0.0857 -0.0008 -0.0063  0.0000  0.0067  0.0005 -0.0008 -0.0089
  25.  B 5 (pz)   1.2997  0.0001  0.0006  0.0000 -0.0005 -0.0031 -0.0013 -0.0119
  26.  B 6 (S)    0.0000  1.0058 -0.2964  0.0000  0.0315 -0.0228  0.0002  0.0017
  27.  B 6 (S)    0.0009  0.0011  1.5199  0.0000 -0.2566  0.1669 -0.0023 -0.0216
  28.  B 6 (px)   0.0000  0.0000  0.0000  1.0508  0.0000  0.0000  0.0000  0.0000
  29.  B 6 (py)  -0.0005 -0.0151 -0.1723  0.0000  1.2690  0.0857  0.0008  0.0089
  30.  B 6 (pz)  -0.0031  0.0084  0.1121  0.0000  0.0857  1.2997 -0.0013 -0.0119
  31.  B 7 (S)    0.0017  0.0003  0.0022  0.0000 -0.0016  0.0017  1.0054 -0.2979
  32.  B 7 (S)   -0.0176 -0.0028 -0.0215  0.0000  0.0132 -0.0176 -0.0006  1.4795
  33.  B 7 (px)   0.0000  0.0000  0.0000  0.0027  0.0000  0.0000  0.0000  0.0000
  34.  B 7 (py)   0.0082 -0.0012 -0.0089  0.0000  0.0029 -0.0082  0.0000  0.0000
  35.  B 7 (pz)   0.0100  0.0017  0.0132  0.0000 -0.0116  0.0100 -0.0049 -0.0863
  36.  B 8 (S)   -0.0001 -0.0003 -0.0003  0.0000  0.0016  0.0008  0.0060  0.0398
  37.  B 8 (S)    0.0012 -0.0003 -0.0010  0.0000 -0.0304 -0.0035 -0.0232 -0.2850
  38.  B 8 (px)   0.0000  0.0000  0.0000  0.0166  0.0000  0.0000  0.0000  0.0000
  39.  B 8 (py)  -0.0001 -0.0026 -0.0194  0.0000 -0.0119 -0.0219  0.0305  0.2540
  40.  B 8 (pz)  -0.0015 -0.0014 -0.0071  0.0000  0.0180 -0.0040 -0.0030 -0.0429
  41.  B 9 (S)    0.0008  0.0000 -0.0001  0.0000  0.0002 -0.0001  0.0060  0.0398
  42.  B 9 (S)   -0.0035  0.0003  0.0024  0.0000 -0.0030  0.0012 -0.0232 -0.2850
  43.  B 9 (px)   0.0000  0.0000  0.0000 -0.0006  0.0000  0.0000  0.0000  0.0000
  44.  B 9 (py)   0.0219  0.0001  0.0008  0.0000 -0.0014  0.0001 -0.0305 -0.2540
  45.  B 9 (pz)  -0.0040 -0.0003 -0.0022  0.0000  0.0020 -0.0015 -0.0030 -0.0429
  46.  B10 (S)    0.0000  0.0056  0.0380  0.0000  0.0149  0.0326 -0.0002 -0.0001
  47.  B10 (S)    0.0001 -0.0213 -0.2784  0.0000 -0.1301 -0.3580 -0.0015 -0.0061
  48.  B10 (px)   0.0000  0.0000  0.0000 -0.1116  0.0000  0.0000  0.0000  0.0000
  49.  B10 (py)   0.0003  0.0054  0.0301  0.0000 -0.0617  0.0506 -0.0013 -0.0088
  50.  B10 (pz)  -0.0006  0.0282  0.2493  0.0000  0.1206  0.2822 -0.0025 -0.0186
  51.  B11 (S)    0.0326  0.0000  0.0000  0.0000  0.0000  0.0000 -0.0002 -0.0001
  52.  B11 (S)   -0.3580  0.0000 -0.0003  0.0000  0.0002  0.0001 -0.0015 -0.0061
  53.  B11 (px)   0.0000  0.0000  0.0000 -0.0004  0.0000  0.0000  0.0000  0.0000
  54.  B11 (py)  -0.0506  0.0000  0.0001  0.0000 -0.0001 -0.0003  0.0013  0.0088
  55.  B11 (pz)   0.2822  0.0000  0.0000  0.0000  0.0000 -0.0006 -0.0025 -0.0186

          AO        33      34      35      36      37      38      39      40
      ---------- ------- ------- ------- ------- ------- ------- ------- -------
   1.  B 1 (S)    0.0000  0.0066 -0.0195  0.0026  0.0234  0.0000 -0.0124 -0.0243
   2.  B 1 (S)    0.0000 -0.0388  0.1278 -0.0063 -0.1566  0.0000  0.1176  0.2084
   3.  B 1 (px)  -0.0492  0.0000  0.0000  0.0000  0.0000 -0.0744  0.0000  0.0000
   4.  B 1 (py)   0.0000  0.0341 -0.0716 -0.0042 -0.0528  0.0000  0.0342  0.0625
   5.  B 1 (pz)   0.0000 -0.0403  0.1278 -0.0146 -0.1676  0.0000  0.0943  0.1902
   6.  B 2 (S)    0.0000  0.0002 -0.0001  0.0003  0.0025  0.0000 -0.0009 -0.0025
   7.  B 2 (S)    0.0000 -0.0018  0.0029 -0.0032 -0.0252  0.0000  0.0062  0.0255
   8.  B 2 (px)   0.0037  0.0000  0.0000  0.0000  0.0000  0.0036  0.0000  0.0000
   9.  B 2 (py)   0.0000 -0.0004  0.0015 -0.0004 -0.0025  0.0000 -0.0037  0.0018
  10.  B 2 (pz)   0.0000 -0.0016  0.0027 -0.0022 -0.0178  0.0000  0.0071  0.0186
  11.  B 3 (S)    0.0000 -0.0002 -0.0001  0.0001  0.0005  0.0000 -0.0002 -0.0004
  12.  B 3 (S)    0.0000  0.0018  0.0029 -0.0003 -0.0018  0.0000  0.0003  0.0010
  13.  B 3 (px)   0.0037  0.0000  0.0000  0.0000  0.0000  0.0005  0.0000  0.0000
  14.  B 3 (py)   0.0000 -0.0004 -0.0015 -0.0001 -0.0006  0.0000 -0.0004  0.0003
  15.  B 3 (pz)   0.0000  0.0016  0.0027 -0.0002 -0.0017  0.0000  0.0009  0.0011
  16.  B 4 (S)    0.0000 -0.0066 -0.0195 -0.0004 -0.0019  0.0000  0.0012  0.0015
  17.  B 4 (S)    0.0000  0.0388  0.1278  0.0022  0.0178  0.0000 -0.0151 -0.0169
  18.  B 4 (px)  -0.0492  0.0000  0.0000  0.0000  0.0000  0.0082  0.0000  0.0000
  19.  B 4 (py)   0.0000  0.0341  0.0716  0.0018  0.0110  0.0000 -0.0064 -0.0096
  20.  B 4 (pz)   0.0000  0.0403  0.1278  0.0021  0.0147  0.0000 -0.0105 -0.0160
  21.  B 5 (S)    0.0000 -0.0010 -0.0016  0.0000 -0.0002  0.0000  0.0001  0.0003
  22.  B 5 (S)    0.0000  0.0134  0.0197  0.0004  0.0024  0.0000 -0.0011 -0.0032
  23.  B 5 (px)   0.0027  0.0000  0.0000  0.0000  0.0000 -0.0006  0.0000  0.0000
  24.  B 5 (py)   0.0000  0.0029  0.0117  0.0003  0.0020  0.0000 -0.0014 -0.0020
  25.  B 5 (pz)   0.0000  0.0083  0.0101  0.0001  0.0008  0.0000 -0.0001 -0.0015
  26.  B 6 (S)    0.0000  0.0010 -0.0016 -0.0002 -0.0001  0.0000  0.0020 -0.0001
  27.  B 6 (S)    0.0000 -0.0134  0.0197 -0.0005 -0.0010  0.0000 -0.0289 -0.0105
  28.  B 6 (px)   0.0027  0.0000  0.0000  0.0000  0.0000  0.0166  0.0000  0.0000
  29.  B 6 (py)   0.0000  0.0029 -0.0117 -0.0031 -0.0205  0.0000 -0.0119  0.0180
  30.  B 6 (pz)   0.0000 -0.0083  0.0101  0.0000 -0.0024  0.0000 -0.0219 -0.0040
  31.  B 7 (S)    0.0000  0.0000  0.0206  0.0055  0.0375  0.0000 -0.0334  0.0092
  32.  B 7 (S)    0.0000  0.0000 -0.1289 -0.0206 -0.2837  0.0000  0.3760 -0.0636
  33.  B 7 (px)   1.0488  0.0000  0.0000  0.0000  0.0000 -0.1176  0.0000  0.0000
  34.  B 7 (py)   0.0000  1.4513  0.0000 -0.0323 -0.2766  0.0000  0.3266 -0.0563
  35.  B 7 (pz)   0.0000  0.0000  1.1316  0.0025  0.0082  0.0000 -0.0121 -0.0918
  36.  B 8 (S)    0.0000  0.0376  0.0014  1.0057 -0.2966  0.0000  0.0169  0.0335
  37.  B 8 (S)    0.0000 -0.4143  0.0123  0.0011  1.5149  0.0000 -0.1239 -0.2640
  38.  B 8 (px)  -0.1185  0.0000  0.0000  0.0000  0.0000  1.0503  0.0000  0.0000
  39.  B 8 (py)   0.0000  0.3291 -0.0122 -0.0063 -0.0832  0.0000  1.3323 -0.0816
  40.  B 8 (pz)   0.0000 -0.0567 -0.0925 -0.0149 -0.1774  0.0000 -0.0816  1.2354
  41.  B 9 (S)    0.0000 -0.0376  0.0014  0.0002  0.0019  0.0000 -0.0027 -0.0002
  42.  B 9 (S)    0.0000  0.4143  0.0123 -0.0059 -0.0382  0.0000  0.0433 -0.0037
  43.  B 9 (px)  -0.1185  0.0000  0.0000  0.0000  0.0000  0.0140  0.0000  0.0000
  44.  B 9 (py)   0.0000  0.3291  0.0122 -0.0042 -0.0292  0.0000  0.0358 -0.0038
  45.  B 9 (pz)   0.0000  0.0567 -0.0925 -0.0006 -0.0025  0.0000  0.0038  0.0071
  46.  B10 (S)    0.0000  0.0015  0.0016  0.0063  0.0402  0.0000  0.0271 -0.0235
  47.  B10 (S)    0.0000 -0.0171 -0.0307 -0.0255 -0.3069  0.0000 -0.2865  0.2950
  48.  B10 (px)   0.0160  0.0000  0.0000  0.0000  0.0000 -0.1182  0.0000  0.0000
  49.  B10 (py)   0.0000 -0.0029  0.0199  0.0195  0.1454  0.0000  0.0666 -0.1654
  50.  B10 (pz)   0.0000 -0.0270 -0.0073 -0.0262 -0.2270  0.0000 -0.2317  0.1629
  51.  B11 (S)    0.0000 -0.0015  0.0016  0.0001  0.0003  0.0000 -0.0003 -0.0001
  52.  B11 (S)    0.0000  0.0171 -0.0307 -0.0004 -0.0028  0.0000  0.0036  0.0027
  53.  B11 (px)   0.0160  0.0000  0.0000  0.0000  0.0000 -0.0023  0.0000  0.0000
  54.  B11 (py)   0.0000 -0.0029 -0.0199 -0.0001 -0.0006  0.0000  0.0006  0.0019
  55.  B11 (pz)   0.0000  0.0270 -0.0073 -0.0004 -0.0028  0.0000  0.0035  0.0003

          AO        41      42      43      44      45      46      47      48
      ---------- ------- ------- ------- ------- ------- ------- ------- -------
   1.  B 1 (S)   -0.0004 -0.0019  0.0000 -0.0012  0.0015  0.0032  0.0244  0.0000
   2.  B 1 (S)    0.0022  0.0178  0.0000  0.0151 -0.0169 -0.0080 -0.1712  0.0000
   3.  B 1 (px)   0.0000  0.0000  0.0082  0.0000  0.0000  0.0000  0.0000 -0.0831
   4.  B 1 (py)  -0.0018 -0.0110  0.0000 -0.0064  0.0096 -0.0192 -0.1964  0.0000
   5.  B 1 (pz)   0.0021  0.0147  0.0000  0.0105 -0.0160 -0.0038 -0.0423  0.0000
   6.  B 2 (S)    0.0001  0.0005  0.0000  0.0002 -0.0004 -0.0002 -0.0001  0.0000
   7.  B 2 (S)   -0.0003 -0.0018  0.0000 -0.0003  0.0010 -0.0010 -0.0061  0.0000
   8.  B 2 (px)   0.0000  0.0000  0.0005  0.0000  0.0000  0.0000  0.0000  0.0169
   9.  B 2 (py)   0.0001  0.0006  0.0000 -0.0004 -0.0003 -0.0018 -0.0150  0.0000
  10.  B 2 (pz)  -0.0002 -0.0017  0.0000 -0.0009  0.0011  0.0022  0.0134  0.0000
  11.  B 3 (S)    0.0003  0.0025  0.0000  0.0009 -0.0025  0.0001  0.0006  0.0000
  12.  B 3 (S)   -0.0032 -0.0252  0.0000 -0.0062  0.0255 -0.0008 -0.0053  0.0000
  13.  B 3 (px)   0.0000  0.0000  0.0036  0.0000  0.0000  0.0000  0.0000 -0.0009
  14.  B 3 (py)   0.0004  0.0025  0.0000 -0.0037 -0.0018 -0.0007 -0.0049  0.0000
  15.  B 3 (pz)  -0.0022 -0.0178  0.0000 -0.0071  0.0186 -0.0004 -0.0025  0.0000
  16.  B 4 (S)    0.0026  0.0234  0.0000  0.0124 -0.0243  0.0003  0.0024  0.0000
  17.  B 4 (S)   -0.0063 -0.1566  0.0000 -0.1176  0.2084 -0.0034 -0.0253  0.0000
  18.  B 4 (px)   0.0000  0.0000 -0.0744  0.0000  0.0000  0.0000  0.0000  0.0074
  19.  B 4 (py)   0.0042  0.0528  0.0000  0.0342 -0.0625 -0.0029 -0.0229  0.0000
  20.  B 4 (pz)  -0.0146 -0.1676  0.0000 -0.0943  0.1902  0.0001  0.0011  0.0000
  21.  B 5 (S)   -0.0002 -0.0001  0.0000 -0.0020 -0.0001  0.0000  0.0000  0.0000
  22.  B 5 (S)   -0.0005 -0.0010  0.0000  0.0289 -0.0105  0.0000 -0.0003  0.0000
  23.  B 5 (px)   0.0000  0.0000  0.0166  0.0000  0.0000  0.0000  0.0000 -0.0005
  24.  B 5 (py)   0.0031  0.0205  0.0000 -0.0119 -0.0180  0.0000 -0.0001  0.0000
  25.  B 5 (pz)   0.0000 -0.0024  0.0000  0.0219 -0.0040  0.0000  0.0001  0.0000
  26.  B 6 (S)    0.0000 -0.0002  0.0000 -0.0001  0.0003  0.0055  0.0375  0.0000
  27.  B 6 (S)    0.0004  0.0024  0.0000  0.0011 -0.0032 -0.0206 -0.2780  0.0000
  28.  B 6 (px)   0.0000  0.0000 -0.0006  0.0000  0.0000  0.0000  0.0000 -0.1143
  29.  B 6 (py)  -0.0003 -0.0020  0.0000 -0.0014  0.0020 -0.0082 -0.0873  0.0000
  30.  B 6 (pz)   0.0001  0.0008  0.0000  0.0001 -0.0015 -0.0278 -0.2403  0.0000
  31.  B 7 (S)    0.0055  0.0375  0.0000  0.0334  0.0092 -0.0002 -0.0003  0.0000
  32.  B 7 (S)   -0.0206 -0.2837  0.0000 -0.3760 -0.0636 -0.0013 -0.0060  0.0000
  33.  B 7 (px)   0.0000  0.0000 -0.1176  0.0000  0.0000  0.0000  0.0000  0.0162
  34.  B 7 (py)   0.0323  0.2766  0.0000  0.3266  0.0563 -0.0014 -0.0114  0.0000
  35.  B 7 (pz)   0.0025  0.0082  0.0000  0.0121 -0.0918 -0.0031 -0.0205  0.0000
  36.  B 8 (S)    0.0002  0.0019  0.0000  0.0027 -0.0002  0.0061  0.0393  0.0000
  37.  B 8 (S)   -0.0059 -0.0382  0.0000 -0.0433 -0.0037 -0.0243 -0.3061  0.0000
  38.  B 8 (px)   0.0000  0.0000  0.0140  0.0000  0.0000  0.0000  0.0000 -0.1210
  39.  B 8 (py)   0.0042  0.0292  0.0000  0.0358  0.0038 -0.0216 -0.1922  0.0000
  40.  B 8 (pz)  -0.0006 -0.0025  0.0000 -0.0038  0.0071  0.0249  0.1980  0.0000
  41.  B 9 (S)    1.0057 -0.2966  0.0000 -0.0169  0.0335  0.0000  0.0002  0.0000
  42.  B 9 (S)    0.0011  1.5149  0.0000  0.1239 -0.2640 -0.0003 -0.0027  0.0000
  43.  B 9 (px)   0.0000  0.0000  1.0503  0.0000  0.0000  0.0000  0.0000 -0.0024
  44.  B 9 (py)   0.0063  0.0832  0.0000  1.3323  0.0816 -0.0003 -0.0024  0.0000
  45.  B 9 (pz)  -0.0149 -0.1774  0.0000  0.0816  1.2354  0.0003  0.0018  0.0000
  46.  B10 (S)    0.0001  0.0003  0.0000  0.0003 -0.0001  1.0060 -0.2959  0.0000
  47.  B10 (S)   -0.0004 -0.0028  0.0000 -0.0036  0.0027  0.0000  1.5255  0.0000
  48.  B10 (px)   0.0000  0.0000 -0.0023  0.0000  0.0000  0.0000  0.0000  1.0520
  49.  B10 (py)   0.0001  0.0006  0.0000  0.0006 -0.0019 -0.0179 -0.2119  0.0000
  50.  B10 (pz)  -0.0004 -0.0028  0.0000 -0.0035  0.0003 -0.0020 -0.0329  0.0000
  51.  B11 (S)    0.0063  0.0402  0.0000 -0.0271 -0.0235  0.0000  0.0002  0.0000
  52.  B11 (S)   -0.0255 -0.3069  0.0000  0.2865  0.2950 -0.0003 -0.0024  0.0000
  53.  B11 (px)   0.0000  0.0000 -0.1182  0.0000  0.0000  0.0000  0.0000 -0.0005
  54.  B11 (py)  -0.0195 -0.1454  0.0000  0.0666  0.1654 -0.0002 -0.0017  0.0000
  55.  B11 (pz)  -0.0262 -0.2270  0.0000  0.2317  0.1629  0.0001  0.0007  0.0000

          AO        49      50      51      52      53      54      55
      ---------- ------- ------- ------- ------- ------- ------- -------
   1.  B 1 (S)   -0.0265 -0.0063  0.0003  0.0024  0.0000  0.0028 -0.0006
   2.  B 1 (S)    0.2553  0.0587 -0.0034 -0.0253  0.0000 -0.0279  0.0051
   3.  B 1 (px)   0.0000  0.0000  0.0000  0.0000  0.0074  0.0000  0.0000
   4.  B 1 (py)   0.2413  0.0539  0.0029  0.0229  0.0000  0.0259 -0.0054
   5.  B 1 (pz)   0.0519  0.0177  0.0001  0.0011  0.0000  0.0016 -0.0013
   6.  B 2 (S)    0.0009 -0.0014  0.0001  0.0006  0.0000  0.0002 -0.0004
   7.  B 2 (S)   -0.0220  0.0191 -0.0008 -0.0053  0.0000 -0.0014  0.0055
   8.  B 2 (px)   0.0000  0.0000  0.0000  0.0000 -0.0009  0.0000  0.0000
   9.  B 2 (py)  -0.0098  0.0262  0.0007  0.0049  0.0000  0.0014 -0.0048
  10.  B 2 (pz)  -0.0157 -0.0061 -0.0004 -0.0025  0.0000 -0.0024  0.0011
  11.  B 3 (S)   -0.0002 -0.0004 -0.0002 -0.0001  0.0000 -0.0009 -0.0014
  12.  B 3 (S)    0.0014  0.0055 -0.0010 -0.0061  0.0000  0.0220  0.0191
  13.  B 3 (px)   0.0000  0.0000  0.0000  0.0000  0.0169  0.0000  0.0000
  14.  B 3 (py)   0.0014  0.0048  0.0018  0.0150  0.0000 -0.0098 -0.0262
  15.  B 3 (pz)   0.0024  0.0011  0.0022  0.0134  0.0000  0.0157 -0.0061
  16.  B 4 (S)   -0.0028 -0.0006  0.0032  0.0244  0.0000  0.0265 -0.0063
  17.  B 4 (S)    0.0279  0.0051 -0.0080 -0.1712  0.0000 -0.2553  0.0587
  18.  B 4 (px)   0.0000  0.0000  0.0000  0.0000 -0.0831  0.0000  0.0000
  19.  B 4 (py)   0.0259  0.0054  0.0192  0.1964  0.0000  0.2413 -0.0539
  20.  B 4 (pz)  -0.0016 -0.0013 -0.0038 -0.0423  0.0000 -0.0519  0.0177
  21.  B 5 (S)    0.0000  0.0000  0.0055  0.0375  0.0000  0.0009 -0.0359
  22.  B 5 (S)   -0.0001  0.0000 -0.0206 -0.2780  0.0000 -0.0458  0.3799
  23.  B 5 (px)   0.0000  0.0000  0.0000  0.0000 -0.1143  0.0000  0.0000
  24.  B 5 (py)  -0.0001  0.0000  0.0082  0.0873  0.0000 -0.0631 -0.1235
  25.  B 5 (pz)   0.0003 -0.0006 -0.0278 -0.2403  0.0000 -0.0518  0.2890
  26.  B 6 (S)   -0.0009 -0.0359  0.0000  0.0000  0.0000  0.0000  0.0000
  27.  B 6 (S)    0.0458  0.3799  0.0000 -0.0003  0.0000  0.0001  0.0000
  28.  B 6 (px)   0.0000  0.0000  0.0000  0.0000 -0.0005  0.0000  0.0000
  29.  B 6 (py)  -0.0631  0.1235  0.0000  0.0001  0.0000 -0.0001  0.0000
  30.  B 6 (pz)   0.0518  0.2890  0.0000  0.0001  0.0000 -0.0003 -0.0006
  31.  B 7 (S)    0.0007  0.0020 -0.0002 -0.0003  0.0000 -0.0007  0.0020
  32.  B 7 (S)   -0.0133 -0.0282 -0.0013 -0.0060  0.0000  0.0133 -0.0282
  33.  B 7 (px)   0.0000  0.0000  0.0000  0.0000  0.0162  0.0000  0.0000
  34.  B 7 (py)  -0.0029 -0.0274  0.0014  0.0114  0.0000 -0.0029  0.0274
  35.  B 7 (pz)   0.0202 -0.0074 -0.0031 -0.0205  0.0000 -0.0202 -0.0074
  36.  B 8 (S)   -0.0159  0.0319  0.0000  0.0002  0.0000  0.0000  0.0002
  37.  B 8 (S)    0.2212 -0.3454 -0.0003 -0.0027  0.0000 -0.0008 -0.0043
  38.  B 8 (px)   0.0000  0.0000  0.0000  0.0000 -0.0024  0.0000  0.0000
  39.  B 8 (py)   0.0681 -0.2372  0.0003  0.0024  0.0000  0.0006  0.0036
  40.  B 8 (pz)  -0.1693  0.1667  0.0003  0.0018  0.0000  0.0020  0.0003
  41.  B 9 (S)    0.0000  0.0002  0.0061  0.0393  0.0000  0.0159  0.0319
  42.  B 9 (S)    0.0008 -0.0043 -0.0243 -0.3061  0.0000 -0.2212 -0.3454
  43.  B 9 (px)   0.0000  0.0000  0.0000  0.0000 -0.1210  0.0000  0.0000
  44.  B 9 (py)   0.0006 -0.0036  0.0216  0.1922  0.0000  0.0681  0.2372
  45.  B 9 (pz)  -0.0020  0.0003  0.0249  0.1980  0.0000  0.1693  0.1667
  46.  B10 (S)    0.0405  0.0077  0.0000  0.0002  0.0000  0.0003 -0.0001
  47.  B10 (S)   -0.3236 -0.0503 -0.0003 -0.0024  0.0000 -0.0026  0.0010
  48.  B10 (px)   0.0000  0.0000  0.0000  0.0000 -0.0005  0.0000  0.0000
  49.  B10 (py)   1.2220 -0.0365  0.0002  0.0017  0.0000  0.0021 -0.0009
  50.  B10 (pz)  -0.0365  1.3565  0.0001  0.0007  0.0000  0.0009 -0.0006
  51.  B11 (S)   -0.0003 -0.0001  1.0060 -0.2959  0.0000 -0.0405  0.0077
  52.  B11 (S)    0.0026  0.0010  0.0000  1.5255  0.0000  0.3236 -0.0503
  53.  B11 (px)   0.0000  0.0000  0.0000  0.0000  1.0520  0.0000  0.0000
  54.  B11 (py)   0.0021  0.0009  0.0179  0.2119  0.0000  1.2220  0.0365
  55.  B11 (pz)  -0.0009 -0.0006 -0.0020 -0.0329  0.0000  0.0365  1.3565


 NAO density matrix:                                                           

          NAO        1       2       3       4       5       6       7       8
      ---------- ------- ------- ------- ------- ------- ------- ------- -------
   1.  B 1 (S)    1.9998  0.0000  0.0000 -0.0098 -0.0008  0.0000  0.0000  0.0000
   2.  B 1 (S)    0.0000  0.8795  0.0000 -0.0093 -0.0182 -0.0060  0.1108  0.0000
   3.  B 1 (px)   0.0000  0.0000  0.5908  0.0000  0.0000  0.0000  0.0000  0.3159
   4.  B 1 (py)  -0.0098 -0.0093  0.0000  0.7866  0.0154 -0.0043  0.0028  0.0000
   5.  B 1 (pz)  -0.0008 -0.0182  0.0000  0.0154  0.8311  0.0050 -0.1945  0.0000
   6.  B 2 (S)    0.0000 -0.0060  0.0000 -0.0043  0.0050  1.9995  0.0000  0.0000
   7.  B 2 (S)    0.0000  0.1108  0.0000  0.0028 -0.1945  0.0000  1.0656  0.0000
   8.  B 2 (px)   0.0000  0.0000  0.3159  0.0000  0.0000  0.0000  0.0000  0.6224
   9.  B 2 (py)  -0.0020 -0.0060  0.0000  0.0384  0.0173 -0.0010 -0.0031  0.0000
  10.  B 2 (pz)  -0.0030  0.3453  0.0000 -0.0480 -0.4896 -0.0043 -0.1160  0.0000
  11.  B 3 (S)    0.0000 -0.0037  0.0000  0.0027  0.0038  0.0000 -0.0049  0.0000
  12.  B 3 (S)   -0.0028 -0.0063  0.0000 -0.0070 -0.0129 -0.0049  0.4654  0.0000
  13.  B 3 (px)   0.0000  0.0000  0.0913  0.0000  0.0000  0.0000  0.0000  0.5184
  14.  B 3 (py)  -0.0036  0.0398  0.0000 -0.0557 -0.0515  0.0091  0.4721  0.0000
  15.  B 3 (pz)  -0.0086  0.1199  0.0000 -0.1578 -0.0628  0.0114 -0.1686  0.0000
  16.  B 4 (S)   -0.0001 -0.0013  0.0000 -0.0039 -0.0009  0.0000 -0.0028  0.0000
  17.  B 4 (S)   -0.0013  0.2645  0.0000 -0.3892 -0.0007 -0.0037 -0.0063  0.0000
  18.  B 4 (px)   0.0000  0.0000  0.1059  0.0000  0.0000  0.0000  0.0000  0.0913
  19.  B 4 (py)   0.0039  0.3892  0.0000 -0.4929 -0.0016 -0.0027  0.0070  0.0000
  20.  B 4 (pz)  -0.0009 -0.0007  0.0000  0.0016  0.0350  0.0038 -0.0129  0.0000
  21.  B 5 (S)    0.0000  0.0018  0.0000 -0.0024  0.0008 -0.0001  0.0076  0.0000
  22.  B 5 (S)    0.0009  0.0100  0.0000 -0.0009 -0.0047  0.0072 -0.0512  0.0000
  23.  B 5 (px)   0.0000  0.0000 -0.0338  0.0000  0.0000  0.0000  0.0000  0.2501
  24.  B 5 (py)   0.0027 -0.0629  0.0000  0.0639  0.0642  0.0032 -0.0396  0.0000
  25.  B 5 (pz)   0.0022 -0.0108  0.0000  0.0084  0.0485 -0.0059  0.0410  0.0000
  26.  B 6 (S)    0.0001 -0.0071  0.0000  0.0016 -0.0003  0.0002 -0.0035  0.0000
  27.  B 6 (S)    0.0017  0.1243  0.0000  0.1334 -0.1117 -0.0024  0.4552  0.0000
  28.  B 6 (px)   0.0000  0.0000  0.4493  0.0000  0.0000  0.0000  0.0000  0.4737
  29.  B 6 (py)  -0.0023 -0.3129  0.0000 -0.1900  0.3730 -0.0178 -0.2879  0.0000
  30.  B 6 (pz)   0.0010  0.2573  0.0000  0.2672 -0.2339  0.0025 -0.3944  0.0000
  31.  B 7 (S)    0.0000 -0.0067  0.0000 -0.0005 -0.0058 -0.0001  0.0003  0.0000
  32.  B 7 (S)   -0.0039  0.1004  0.0000 -0.0789  0.1577  0.0009  0.0052  0.0000
  33.  B 7 (px)   0.0000  0.0000  0.2688  0.0000  0.0000  0.0000  0.0000 -0.2820
  34.  B 7 (py)  -0.0019  0.0944  0.0000 -0.0382  0.1301  0.0007  0.0052  0.0000
  35.  B 7 (pz)   0.0070 -0.2852  0.0000  0.2409 -0.2802 -0.0038  0.0084  0.0000
  36.  B 8 (S)    0.0000 -0.0062  0.0000 -0.0009  0.0000  0.0001 -0.0002  0.0000
  37.  B 8 (S)    0.0021  0.1210  0.0000  0.0674  0.1550 -0.0011  0.0328  0.0000
  38.  B 8 (px)   0.0000  0.0000  0.4287  0.0000  0.0000  0.0000  0.0000 -0.0739
  39.  B 8 (py)  -0.0028 -0.1468  0.0000 -0.0153 -0.2381 -0.0020  0.0080  0.0000
  40.  B 8 (pz)  -0.0016 -0.3271  0.0000 -0.2194 -0.4743 -0.0031 -0.0060  0.0000
  41.  B 9 (S)   -0.0001  0.0017  0.0000 -0.0016 -0.0002  0.0000  0.0004  0.0000
  42.  B 9 (S)    0.0009 -0.0306  0.0000  0.0465 -0.0018 -0.0002 -0.0005  0.0000
  43.  B 9 (px)   0.0000  0.0000  0.0418  0.0000  0.0000  0.0000  0.0000 -0.2530
  44.  B 9 (py)  -0.0010 -0.0316  0.0000  0.0202 -0.0192 -0.0009  0.0139  0.0000
  45.  B 9 (pz)   0.0026 -0.0311  0.0000  0.0640  0.0512  0.0007 -0.0140  0.0000
  46.  B10 (S)    0.0000 -0.0062  0.0000  0.0025 -0.0001 -0.0002  0.0060  0.0000
  47.  B10 (S)    0.0022  0.1338  0.0000  0.1972  0.0427  0.0075 -0.0630  0.0000
  48.  B10 (px)   0.0000  0.0000  0.5000  0.0000  0.0000  0.0000  0.0000  0.2055
  49.  B10 (py)  -0.0045 -0.3859  0.0000 -0.4410 -0.1864  0.0070 -0.0271  0.0000
  50.  B10 (pz)  -0.0011 -0.0830  0.0000 -0.1308  0.0727 -0.0057  0.0717  0.0000
  51.  B11 (S)    0.0000  0.0021  0.0000 -0.0025 -0.0001  0.0001 -0.0010  0.0000
  52.  B11 (S)    0.0008  0.0413  0.0000 -0.0446  0.0000 -0.0011  0.0180  0.0000
  53.  B11 (px)   0.0000  0.0000 -0.0488  0.0000  0.0000  0.0000  0.0000 -0.0486
  54.  B11 (py)   0.0074 -0.1010  0.0000  0.1417 -0.0381 -0.0010  0.0072  0.0000
  55.  B11 (pz)  -0.0017  0.0132  0.0000 -0.0235 -0.0073  0.0011 -0.0206  0.0000

          NAO        9      10      11      12      13      14      15      16
      ---------- ------- ------- ------- ------- ------- ------- ------- -------
   1.  B 1 (S)   -0.0020 -0.0030  0.0000 -0.0028  0.0000 -0.0036 -0.0086 -0.0001
   2.  B 1 (S)   -0.0060  0.3453 -0.0037 -0.0063  0.0000  0.0398  0.1199 -0.0013
   3.  B 1 (px)   0.0000  0.0000  0.0000  0.0000  0.0913  0.0000  0.0000  0.0000
   4.  B 1 (py)   0.0384 -0.0480  0.0027 -0.0070  0.0000 -0.0557 -0.1578 -0.0039
   5.  B 1 (pz)   0.0173 -0.4896  0.0038 -0.0129  0.0000 -0.0515 -0.0628 -0.0009
   6.  B 2 (S)   -0.0010 -0.0043  0.0000 -0.0049  0.0000  0.0091  0.0114  0.0000
   7.  B 2 (S)   -0.0031 -0.1160 -0.0049  0.4654  0.0000  0.4721 -0.1686 -0.0028
   8.  B 2 (px)   0.0000  0.0000  0.0000  0.0000  0.5184  0.0000  0.0000  0.0000
   9.  B 2 (py)   0.8482  0.0663 -0.0091 -0.4721  0.0000 -0.4557  0.1155  0.0036
  10.  B 2 (pz)   0.0663  0.5242  0.0114 -0.1686  0.0000 -0.1155  0.1889 -0.0086
  11.  B 3 (S)   -0.0091  0.0114  1.9995  0.0000  0.0000  0.0010 -0.0043  0.0000
  12.  B 3 (S)   -0.4721 -0.1686  0.0000  1.0656  0.0000  0.0031 -0.1160  0.0000
  13.  B 3 (px)   0.0000  0.0000  0.0000  0.0000  0.6224  0.0000  0.0000  0.0000
  14.  B 3 (py)  -0.4557 -0.1155  0.0010  0.0031  0.0000  0.8482 -0.0663  0.0020
  15.  B 3 (pz)   0.1155  0.1889 -0.0043 -0.1160  0.0000 -0.0663  0.5242 -0.0030
  16.  B 4 (S)    0.0036 -0.0086  0.0000  0.0000  0.0000  0.0020 -0.0030  1.9998
  17.  B 4 (S)   -0.0398  0.1199 -0.0060  0.1108  0.0000  0.0060  0.3453  0.0000
  18.  B 4 (px)   0.0000  0.0000  0.0000  0.0000  0.3159  0.0000  0.0000  0.0000
  19.  B 4 (py)  -0.0557  0.1578  0.0043 -0.0028  0.0000  0.0384  0.0480  0.0098
  20.  B 4 (pz)   0.0515 -0.0628  0.0050 -0.1945  0.0000 -0.0173 -0.4896 -0.0008
  21.  B 5 (S)   -0.0070 -0.0027  0.0002 -0.0035  0.0000 -0.0075  0.0151  0.0001
  22.  B 5 (S)    0.0584  0.0141 -0.0024  0.4552  0.0000 -0.5068 -0.0385  0.0017
  23.  B 5 (px)   0.0000  0.0000  0.0000  0.0000  0.4737  0.0000  0.0000  0.0000
  24.  B 5 (py)   0.0434 -0.0237  0.0178  0.2879  0.0000 -0.1869  0.3633  0.0023
  25.  B 5 (pz)  -0.0371 -0.0326  0.0025 -0.3944  0.0000  0.4573  0.2703  0.0010
  26.  B 6 (S)    0.0075  0.0151 -0.0001  0.0076  0.0000  0.0070 -0.0027  0.0000
  27.  B 6 (S)    0.5068 -0.0385  0.0072 -0.0512  0.0000 -0.0584  0.0141  0.0009
  28.  B 6 (px)   0.0000  0.0000  0.0000  0.0000  0.2501  0.0000  0.0000  0.0000
  29.  B 6 (py)  -0.1869 -0.3633 -0.0032  0.0396  0.0000  0.0434  0.0237 -0.0027
  30.  B 6 (pz)  -0.4573  0.2703 -0.0059  0.0410  0.0000  0.0371 -0.0326  0.0022
  31.  B 7 (S)    0.0000  0.0033 -0.0001  0.0003  0.0000  0.0000  0.0033  0.0000
  32.  B 7 (S)    0.0044 -0.0052  0.0009  0.0052  0.0000 -0.0044 -0.0052 -0.0039
  33.  B 7 (px)   0.0000  0.0000  0.0000  0.0000 -0.2820  0.0000  0.0000  0.0000
  34.  B 7 (py)   0.0010  0.0138 -0.0007 -0.0052  0.0000  0.0010 -0.0138  0.0019
  35.  B 7 (pz)  -0.0415  0.0946 -0.0038  0.0084  0.0000  0.0415  0.0946  0.0070
  36.  B 8 (S)   -0.0011  0.0025  0.0000  0.0004  0.0000  0.0009  0.0018 -0.0001
  37.  B 8 (S)    0.0073  0.0462 -0.0002 -0.0005  0.0000 -0.0019 -0.0087  0.0009
  38.  B 8 (px)   0.0000  0.0000  0.0000  0.0000 -0.2530  0.0000  0.0000  0.0000
  39.  B 8 (py)   0.0034  0.0758  0.0009 -0.0139  0.0000 -0.0052  0.0226  0.0010
  40.  B 8 (pz)  -0.0336  0.2094  0.0007 -0.0140  0.0000 -0.0176 -0.0189  0.0026
  41.  B 9 (S)   -0.0009  0.0018  0.0001 -0.0002  0.0000  0.0011  0.0025  0.0000
  42.  B 9 (S)    0.0019 -0.0087 -0.0011  0.0328  0.0000 -0.0073  0.0462  0.0021
  43.  B 9 (px)   0.0000  0.0000  0.0000  0.0000 -0.0739  0.0000  0.0000  0.0000
  44.  B 9 (py)  -0.0052 -0.0226  0.0020 -0.0080  0.0000  0.0034 -0.0758  0.0028
  45.  B 9 (pz)   0.0176 -0.0189 -0.0031 -0.0060  0.0000  0.0336  0.2094 -0.0016
  46.  B10 (S)    0.0063 -0.0021  0.0001 -0.0010  0.0000 -0.0006  0.0014  0.0000
  47.  B10 (S)   -0.0630 -0.0196 -0.0011  0.0180  0.0000  0.0229  0.0081  0.0008
  48.  B10 (px)   0.0000  0.0000  0.0000  0.0000 -0.0486  0.0000  0.0000  0.0000
  49.  B10 (py)  -0.0001 -0.0425  0.0010 -0.0072  0.0000  0.0086  0.0165 -0.0074
  50.  B10 (pz)   0.0624  0.0028  0.0011 -0.0206  0.0000 -0.0063  0.0275 -0.0017
  51.  B11 (S)    0.0006  0.0014 -0.0002  0.0060  0.0000 -0.0063 -0.0021  0.0000
  52.  B11 (S)   -0.0229  0.0081  0.0075 -0.0630  0.0000  0.0630 -0.0196  0.0022
  53.  B11 (px)   0.0000  0.0000  0.0000  0.0000  0.2055  0.0000  0.0000  0.0000
  54.  B11 (py)   0.0086 -0.0165 -0.0070  0.0271  0.0000 -0.0001  0.0425  0.0045
  55.  B11 (pz)   0.0063  0.0275 -0.0057  0.0717  0.0000 -0.0624  0.0028 -0.0011

          NAO       17      18      19      20      21      22      23      24
      ---------- ------- ------- ------- ------- ------- ------- ------- -------
   1.  B 1 (S)   -0.0013  0.0000  0.0039 -0.0009  0.0000  0.0009  0.0000  0.0027
   2.  B 1 (S)    0.2645  0.0000  0.3892 -0.0007  0.0018  0.0100  0.0000 -0.0629
   3.  B 1 (px)   0.0000  0.1059  0.0000  0.0000  0.0000  0.0000 -0.0338  0.0000
   4.  B 1 (py)  -0.3892  0.0000 -0.4929  0.0016 -0.0024 -0.0009  0.0000  0.0639
   5.  B 1 (pz)  -0.0007  0.0000 -0.0016  0.0350  0.0008 -0.0047  0.0000  0.0642
   6.  B 2 (S)   -0.0037  0.0000 -0.0027  0.0038 -0.0001  0.0072  0.0000  0.0032
   7.  B 2 (S)   -0.0063  0.0000  0.0070 -0.0129  0.0076 -0.0512  0.0000 -0.0396
   8.  B 2 (px)   0.0000  0.0913  0.0000  0.0000  0.0000  0.0000  0.2501  0.0000
   9.  B 2 (py)  -0.0398  0.0000 -0.0557  0.0515 -0.0070  0.0584  0.0000  0.0434
  10.  B 2 (pz)   0.1199  0.0000  0.1578 -0.0628 -0.0027  0.0141  0.0000 -0.0237
  11.  B 3 (S)   -0.0060  0.0000  0.0043  0.0050  0.0002 -0.0024  0.0000  0.0178
  12.  B 3 (S)    0.1108  0.0000 -0.0028 -0.1945 -0.0035  0.4552  0.0000  0.2879
  13.  B 3 (px)   0.0000  0.3159  0.0000  0.0000  0.0000  0.0000  0.4737  0.0000
  14.  B 3 (py)   0.0060  0.0000  0.0384 -0.0173 -0.0075 -0.5068  0.0000 -0.1869
  15.  B 3 (pz)   0.3453  0.0000  0.0480 -0.4896  0.0151 -0.0385  0.0000  0.3633
  16.  B 4 (S)    0.0000  0.0000  0.0098 -0.0008  0.0001  0.0017  0.0000  0.0023
  17.  B 4 (S)    0.8795  0.0000  0.0093 -0.0182 -0.0071  0.1243  0.0000  0.3129
  18.  B 4 (px)   0.0000  0.5908  0.0000  0.0000  0.0000  0.0000  0.4493  0.0000
  19.  B 4 (py)   0.0093  0.0000  0.7866 -0.0154 -0.0016 -0.1334  0.0000 -0.1900
  20.  B 4 (pz)  -0.0182  0.0000 -0.0154  0.8311 -0.0003 -0.1117  0.0000 -0.3730
  21.  B 5 (S)   -0.0071  0.0000 -0.0016 -0.0003  1.9995  0.0000  0.0000 -0.0125
  22.  B 5 (S)    0.1243  0.0000 -0.1334 -0.1117  0.0000  1.0905  0.0000 -0.1275
  23.  B 5 (px)   0.0000  0.4493  0.0000  0.0000  0.0000  0.0000  0.4927  0.0000
  24.  B 5 (py)   0.3129  0.0000 -0.1900 -0.3730 -0.0125 -0.1275  0.0000  0.7334
  25.  B 5 (pz)   0.2573  0.0000 -0.2672 -0.2339 -0.0050 -0.1283  0.0000 -0.0827
  26.  B 6 (S)    0.0018  0.0000  0.0024  0.0008  0.0001 -0.0008  0.0000 -0.0015
  27.  B 6 (S)    0.0100  0.0000  0.0009 -0.0047 -0.0008  0.0082  0.0000  0.0352
  28.  B 6 (px)   0.0000 -0.0338  0.0000  0.0000  0.0000  0.0000  0.0114  0.0000
  29.  B 6 (py)   0.0629  0.0000  0.0639 -0.0642  0.0015 -0.0352  0.0000  0.0512
  30.  B 6 (pz)  -0.0108  0.0000 -0.0084  0.0485  0.0005  0.0047  0.0000 -0.0653
  31.  B 7 (S)   -0.0067  0.0000  0.0005 -0.0058  0.0001 -0.0006  0.0000  0.0022
  32.  B 7 (S)    0.1004  0.0000  0.0789  0.1577  0.0002  0.0295  0.0000 -0.0182
  33.  B 7 (px)   0.0000  0.2688  0.0000  0.0000  0.0000  0.0000 -0.0736  0.0000
  34.  B 7 (py)  -0.0944  0.0000 -0.0382 -0.1301  0.0002 -0.0206  0.0000  0.0169
  35.  B 7 (pz)  -0.2852  0.0000 -0.2409 -0.2802 -0.0028 -0.0227  0.0000  0.0824
  36.  B 8 (S)    0.0017  0.0000  0.0016 -0.0002  0.0000  0.0000  0.0000 -0.0016
  37.  B 8 (S)   -0.0306  0.0000 -0.0465 -0.0018 -0.0003 -0.0015  0.0000  0.0040
  38.  B 8 (px)   0.0000  0.0418  0.0000  0.0000  0.0000  0.0000 -0.2127  0.0000
  39.  B 8 (py)   0.0316  0.0000  0.0202  0.0192 -0.0004  0.0116  0.0000 -0.0428
  40.  B 8 (pz)  -0.0311  0.0000 -0.0640  0.0512 -0.0007  0.0148  0.0000 -0.0543
  41.  B 9 (S)   -0.0062  0.0000  0.0009  0.0000 -0.0002  0.0067  0.0000 -0.0079
  42.  B 9 (S)    0.1210  0.0000 -0.0674  0.1550  0.0061 -0.0669  0.0000  0.0729
  43.  B 9 (px)   0.0000  0.4287  0.0000  0.0000  0.0000  0.0000  0.1727  0.0000
  44.  B 9 (py)   0.1468  0.0000 -0.0153  0.2381 -0.0072  0.0715  0.0000 -0.0331
  45.  B 9 (pz)  -0.3271  0.0000  0.2194 -0.4743  0.0012  0.0125  0.0000  0.0103
  46.  B10 (S)    0.0021  0.0000  0.0025 -0.0001  0.0000  0.0002  0.0000  0.0002
  47.  B10 (S)    0.0413  0.0000  0.0446  0.0000  0.0005 -0.0028  0.0000 -0.0170
  48.  B10 (px)   0.0000 -0.0488  0.0000  0.0000  0.0000  0.0000 -0.1673  0.0000
  49.  B10 (py)   0.1010  0.0000  0.1417  0.0381  0.0013  0.0081  0.0000 -0.0674
  50.  B10 (pz)   0.0132  0.0000  0.0235 -0.0073 -0.0003  0.0068  0.0000 -0.0149
  51.  B11 (S)   -0.0062  0.0000 -0.0025 -0.0001  0.0002 -0.0052  0.0000  0.0082
  52.  B11 (S)    0.1338  0.0000 -0.1972  0.0427 -0.0054  0.4390  0.0000 -0.3562
  53.  B11 (px)   0.0000  0.5000  0.0000  0.0000  0.0000  0.0000  0.3795  0.0000
  54.  B11 (py)   0.3859  0.0000 -0.4410  0.1864  0.0134 -0.1698  0.0000  0.3689
  55.  B11 (pz)  -0.0830  0.0000  0.1308  0.0727 -0.0070 -0.4544  0.0000  0.2669

          NAO       25      26      27      28      29      30      31      32
      ---------- ------- ------- ------- ------- ------- ------- ------- -------
   1.  B 1 (S)    0.0022  0.0001  0.0017  0.0000 -0.0023  0.0010  0.0000 -0.0039
   2.  B 1 (S)   -0.0108 -0.0071  0.1243  0.0000 -0.3129  0.2573 -0.0067  0.1004
   3.  B 1 (px)   0.0000  0.0000  0.0000  0.4493  0.0000  0.0000  0.0000  0.0000
   4.  B 1 (py)   0.0084  0.0016  0.1334  0.0000 -0.1900  0.2672 -0.0005 -0.0789
   5.  B 1 (pz)   0.0485 -0.0003 -0.1117  0.0000  0.3730 -0.2339 -0.0058  0.1577
   6.  B 2 (S)   -0.0059  0.0002 -0.0024  0.0000 -0.0178  0.0025 -0.0001  0.0009
   7.  B 2 (S)    0.0410 -0.0035  0.4552  0.0000 -0.2879 -0.3944  0.0003  0.0052
   8.  B 2 (px)   0.0000  0.0000  0.0000  0.4737  0.0000  0.0000  0.0000  0.0000
   9.  B 2 (py)  -0.0371  0.0075  0.5068  0.0000 -0.1869 -0.4573  0.0000  0.0044
  10.  B 2 (pz)  -0.0326  0.0151 -0.0385  0.0000 -0.3633  0.2703  0.0033 -0.0052
  11.  B 3 (S)    0.0025 -0.0001  0.0072  0.0000 -0.0032 -0.0059 -0.0001  0.0009
  12.  B 3 (S)   -0.3944  0.0076 -0.0512  0.0000  0.0396  0.0410  0.0003  0.0052
  13.  B 3 (px)   0.0000  0.0000  0.0000  0.2501  0.0000  0.0000  0.0000  0.0000
  14.  B 3 (py)   0.4573  0.0070 -0.0584  0.0000  0.0434  0.0371  0.0000 -0.0044
  15.  B 3 (pz)   0.2703 -0.0027  0.0141  0.0000  0.0237 -0.0326  0.0033 -0.0052
  16.  B 4 (S)    0.0010  0.0000  0.0009  0.0000 -0.0027  0.0022  0.0000 -0.0039
  17.  B 4 (S)    0.2573  0.0018  0.0100  0.0000  0.0629 -0.0108 -0.0067  0.1004
  18.  B 4 (px)   0.0000  0.0000  0.0000 -0.0338  0.0000  0.0000  0.0000  0.0000
  19.  B 4 (py)  -0.2672  0.0024  0.0009  0.0000  0.0639 -0.0084  0.0005  0.0789
  20.  B 4 (pz)  -0.2339  0.0008 -0.0047  0.0000 -0.0642  0.0485 -0.0058  0.1577
  21.  B 5 (S)   -0.0050  0.0001 -0.0008  0.0000  0.0015  0.0005  0.0001  0.0002
  22.  B 5 (S)   -0.1283 -0.0008  0.0082  0.0000 -0.0352  0.0047 -0.0006  0.0295
  23.  B 5 (px)   0.0000  0.0000  0.0000  0.0114  0.0000  0.0000  0.0000  0.0000
  24.  B 5 (py)  -0.0827 -0.0015  0.0352  0.0000  0.0512 -0.0653  0.0022 -0.0182
  25.  B 5 (pz)   0.8289  0.0005  0.0047  0.0000  0.0653 -0.0411  0.0010  0.0006
  26.  B 6 (S)    0.0005  1.9995  0.0000  0.0000  0.0125 -0.0050  0.0001  0.0002
  27.  B 6 (S)    0.0047  0.0000  1.0905  0.0000  0.1275 -0.1283 -0.0006  0.0295
  28.  B 6 (px)   0.0000  0.0000  0.0000  0.4927  0.0000  0.0000  0.0000  0.0000
  29.  B 6 (py)   0.0653  0.0125  0.1275  0.0000  0.7334  0.0827 -0.0022  0.0182
  30.  B 6 (pz)  -0.0411 -0.0050 -0.1283  0.0000  0.0827  0.8289  0.0010  0.0006
  31.  B 7 (S)    0.0010  0.0001 -0.0006  0.0000 -0.0022  0.0010  1.9995  0.0000
  32.  B 7 (S)    0.0006  0.0002  0.0295  0.0000  0.0182  0.0006  0.0000  1.0317
  33.  B 7 (px)   0.0000  0.0000  0.0000 -0.0736  0.0000  0.0000  0.0000  0.0000
  34.  B 7 (py)   0.0037 -0.0002  0.0206  0.0000  0.0169 -0.0037  0.0000  0.0000
  35.  B 7 (pz)   0.0848 -0.0028 -0.0227  0.0000 -0.0824  0.0848 -0.0039  0.1484
  36.  B 8 (S)   -0.0005 -0.0002  0.0067  0.0000  0.0079  0.0022  0.0001 -0.0050
  37.  B 8 (S)   -0.0115  0.0061 -0.0669  0.0000 -0.0729 -0.0364 -0.0025  0.4448
  38.  B 8 (px)   0.0000  0.0000  0.0000  0.1727  0.0000  0.0000  0.0000  0.0000
  39.  B 8 (py)  -0.0362  0.0072 -0.0715  0.0000 -0.0331 -0.0407 -0.0136 -0.4321
  40.  B 8 (pz)  -0.0665  0.0012  0.0125  0.0000 -0.0103  0.0715 -0.0087  0.2296
  41.  B 9 (S)    0.0022  0.0000  0.0000  0.0000  0.0016 -0.0005  0.0001 -0.0050
  42.  B 9 (S)   -0.0364 -0.0003 -0.0015  0.0000 -0.0040 -0.0115 -0.0025  0.4448
  43.  B 9 (px)   0.0000  0.0000  0.0000 -0.2127  0.0000  0.0000  0.0000  0.0000
  44.  B 9 (py)   0.0407  0.0004 -0.0116  0.0000 -0.0428  0.0362  0.0136  0.4321
  45.  B 9 (pz)   0.0715 -0.0007  0.0148  0.0000  0.0543 -0.0665 -0.0087  0.2296
  46.  B10 (S)   -0.0002  0.0002 -0.0052  0.0000 -0.0082  0.0118 -0.0001  0.0066
  47.  B10 (S)   -0.0019 -0.0054  0.4390  0.0000  0.3562  0.3368  0.0068 -0.0608
  48.  B10 (px)   0.0000  0.0000  0.0000  0.3795  0.0000  0.0000  0.0000  0.0000
  49.  B10 (py)  -0.0379 -0.0134  0.1698  0.0000  0.3689 -0.0983  0.0043  0.0115
  50.  B10 (pz)  -0.0108 -0.0070 -0.4544  0.0000 -0.2669 -0.3984  0.0073 -0.0700
  51.  B11 (S)    0.0118  0.0000  0.0002  0.0000 -0.0002 -0.0002 -0.0001  0.0066
  52.  B11 (S)    0.3368  0.0005 -0.0028  0.0000  0.0170 -0.0019  0.0068 -0.0608
  53.  B11 (px)   0.0000  0.0000  0.0000 -0.1673  0.0000  0.0000  0.0000  0.0000
  54.  B11 (py)   0.0983 -0.0013 -0.0081  0.0000 -0.0674  0.0379 -0.0043 -0.0115
  55.  B11 (pz)  -0.3984 -0.0003  0.0068  0.0000  0.0149 -0.0108  0.0073 -0.0700

          NAO       33      34      35      36      37      38      39      40
      ---------- ------- ------- ------- ------- ------- ------- ------- -------
   1.  B 1 (S)    0.0000 -0.0019  0.0070  0.0000  0.0021  0.0000 -0.0028 -0.0016
   2.  B 1 (S)    0.0000  0.0944 -0.2852 -0.0062  0.1210  0.0000 -0.1468 -0.3271
   3.  B 1 (px)   0.2688  0.0000  0.0000  0.0000  0.0000  0.4287  0.0000  0.0000
   4.  B 1 (py)   0.0000 -0.0382  0.2409 -0.0009  0.0674  0.0000 -0.0153 -0.2194
   5.  B 1 (pz)   0.0000  0.1301 -0.2802  0.0000  0.1550  0.0000 -0.2381 -0.4743
   6.  B 2 (S)    0.0000  0.0007 -0.0038  0.0001 -0.0011  0.0000 -0.0020 -0.0031
   7.  B 2 (S)    0.0000  0.0052  0.0084 -0.0002  0.0328  0.0000  0.0080 -0.0060
   8.  B 2 (px)  -0.2820  0.0000  0.0000  0.0000  0.0000 -0.0739  0.0000  0.0000
   9.  B 2 (py)   0.0000  0.0010 -0.0415 -0.0011  0.0073  0.0000  0.0034 -0.0336
  10.  B 2 (pz)   0.0000  0.0138  0.0946  0.0025  0.0462  0.0000  0.0758  0.2094
  11.  B 3 (S)    0.0000 -0.0007 -0.0038  0.0000 -0.0002  0.0000  0.0009  0.0007
  12.  B 3 (S)    0.0000 -0.0052  0.0084  0.0004 -0.0005  0.0000 -0.0139 -0.0140
  13.  B 3 (px)  -0.2820  0.0000  0.0000  0.0000  0.0000 -0.2530  0.0000  0.0000
  14.  B 3 (py)   0.0000  0.0010  0.0415  0.0009 -0.0019  0.0000 -0.0052 -0.0176
  15.  B 3 (pz)   0.0000 -0.0138  0.0946  0.0018 -0.0087  0.0000  0.0226 -0.0189
  16.  B 4 (S)    0.0000  0.0019  0.0070 -0.0001  0.0009  0.0000  0.0010  0.0026
  17.  B 4 (S)    0.0000 -0.0944 -0.2852  0.0017 -0.0306  0.0000  0.0316 -0.0311
  18.  B 4 (px)   0.2688  0.0000  0.0000  0.0000  0.0000  0.0418  0.0000  0.0000
  19.  B 4 (py)   0.0000 -0.0382 -0.2409  0.0016 -0.0465  0.0000  0.0202 -0.0640
  20.  B 4 (pz)   0.0000 -0.1301 -0.2802 -0.0002 -0.0018  0.0000  0.0192  0.0512
  21.  B 5 (S)    0.0000  0.0002 -0.0028  0.0000 -0.0003  0.0000 -0.0004 -0.0007
  22.  B 5 (S)    0.0000 -0.0206 -0.0227  0.0000 -0.0015  0.0000  0.0116  0.0148
  23.  B 5 (px)  -0.0736  0.0000  0.0000  0.0000  0.0000 -0.2127  0.0000  0.0000
  24.  B 5 (py)   0.0000  0.0169  0.0824 -0.0016  0.0040  0.0000 -0.0428 -0.0543
  25.  B 5 (pz)   0.0000  0.0037  0.0848 -0.0005 -0.0115  0.0000 -0.0362 -0.0665
  26.  B 6 (S)    0.0000 -0.0002 -0.0028 -0.0002  0.0061  0.0000  0.0072  0.0012
  27.  B 6 (S)    0.0000  0.0206 -0.0227  0.0067 -0.0669  0.0000 -0.0715  0.0125
  28.  B 6 (px)  -0.0736  0.0000  0.0000  0.0000  0.0000  0.1727  0.0000  0.0000
  29.  B 6 (py)   0.0000  0.0169 -0.0824  0.0079 -0.0729  0.0000 -0.0331 -0.0103
  30.  B 6 (pz)   0.0000 -0.0037  0.0848  0.0022 -0.0364  0.0000 -0.0407  0.0715
  31.  B 7 (S)    0.0000  0.0000 -0.0039  0.0001 -0.0025  0.0000 -0.0136 -0.0087
  32.  B 7 (S)    0.0000  0.0000  0.1484 -0.0050  0.4448  0.0000 -0.4321  0.2296
  33.  B 7 (px)   0.6346  0.0000  0.0000  0.0000  0.0000  0.4743  0.0000  0.0000
  34.  B 7 (py)   0.0000  0.8426  0.0000  0.0086  0.4769  0.0000 -0.4142  0.2274
  35.  B 7 (pz)   0.0000  0.0000  0.4955 -0.0084  0.1513  0.0000  0.0177  0.3047
  36.  B 8 (S)    0.0000  0.0086 -0.0084  1.9995  0.0000  0.0000  0.0058  0.0110
  37.  B 8 (S)    0.0000  0.4769  0.1513  0.0000  1.0850  0.0000  0.0536  0.1623
  38.  B 8 (px)   0.4743  0.0000  0.0000  0.0000  0.0000  0.5138  0.0000  0.0000
  39.  B 8 (py)   0.0000 -0.4142  0.0177  0.0058  0.0536  0.0000  0.8133 -0.0936
  40.  B 8 (pz)   0.0000  0.2274  0.3047  0.0110  0.1623  0.0000 -0.0936  0.7423
  41.  B 9 (S)    0.0000 -0.0086 -0.0084  0.0000  0.0071  0.0000 -0.0059  0.0027
  42.  B 9 (S)    0.0000 -0.4769  0.1513  0.0071 -0.0458  0.0000  0.0329 -0.0446
  43.  B 9 (px)   0.4743  0.0000  0.0000  0.0000  0.0000  0.2051  0.0000  0.0000
  44.  B 9 (py)   0.0000 -0.4142 -0.0177  0.0059 -0.0329  0.0000  0.0549  0.0226
  45.  B 9 (pz)   0.0000 -0.2274  0.3047  0.0027 -0.0446  0.0000 -0.0226 -0.1097
  46.  B10 (S)    0.0000  0.0061  0.0034  0.0003 -0.0039  0.0000 -0.0004 -0.0167
  47.  B10 (S)    0.0000 -0.0672 -0.0018 -0.0039  0.4556  0.0000  0.4751 -0.1390
  48.  B10 (px)   0.2261  0.0000  0.0000  0.0000  0.0000  0.4069  0.0000  0.0000
  49.  B10 (py)   0.0000  0.0190  0.0487 -0.0182 -0.0119  0.0000  0.1530  0.4535
  50.  B10 (pz)   0.0000 -0.0610  0.0091  0.0032  0.4891  0.0000  0.4924 -0.0975
  51.  B11 (S)    0.0000 -0.0061  0.0034  0.0001 -0.0013  0.0000  0.0011 -0.0011
  52.  B11 (S)    0.0000  0.0672 -0.0018 -0.0009  0.0095  0.0000 -0.0184 -0.0041
  53.  B11 (px)   0.2261  0.0000  0.0000  0.0000  0.0000 -0.0310  0.0000  0.0000
  54.  B11 (py)   0.0000  0.0190 -0.0487 -0.0023  0.0443  0.0000 -0.0012  0.0713
  55.  B11 (pz)   0.0000  0.0610  0.0091 -0.0008  0.0170  0.0000 -0.0108  0.0067

          NAO       41      42      43      44      45      46      47      48
      ---------- ------- ------- ------- ------- ------- ------- ------- -------
   1.  B 1 (S)   -0.0001  0.0009  0.0000 -0.0010  0.0026  0.0000  0.0022  0.0000
   2.  B 1 (S)    0.0017 -0.0306  0.0000 -0.0316 -0.0311 -0.0062  0.1338  0.0000
   3.  B 1 (px)   0.0000  0.0000  0.0418  0.0000  0.0000  0.0000  0.0000  0.5000
   4.  B 1 (py)  -0.0016  0.0465  0.0000  0.0202  0.0640  0.0025  0.1972  0.0000
   5.  B 1 (pz)  -0.0002 -0.0018  0.0000 -0.0192  0.0512 -0.0001  0.0427  0.0000
   6.  B 2 (S)    0.0000 -0.0002  0.0000 -0.0009  0.0007 -0.0002  0.0075  0.0000
[...]
  13. CR (   1) B   3                / 32. LP*(   1) B   5                    2.31    7.59    0.142
  15. CR (   1) B   5                / 28. LP*(   2) B   3                    1.67    7.58    0.116
  15. CR (   1) B   5                / 32. LP*(   1) B   5                    0.71    7.58    0.079
  15. CR (   1) B   5                / 44. LP*(   1) B  11                    1.52    7.60    0.114
  16. CR (   1) B   6                / 26. LP*(   2) B   2                    1.67    7.58    0.116
  16. CR (   1) B   6                / 34. LP*(   1) B   6                    0.71    7.58    0.079
  16. CR (   1) B   6                / 42. LP*(   1) B  10                    1.52    7.60    0.114
  17. CR (   1) B   7                / 37. LP*(   2) B   7                    1.66    7.59    0.114
  17. CR (   1) B   7                / 38. LP (   1) B   8                    1.25    7.62    0.105
  17. CR (   1) B   7                / 40. LP (   1) B   9                    1.25    7.62    0.105
  18. CR (   1) B   8                / 38. LP (   1) B   8                    0.66    7.58    0.076
  18. CR (   1) B   8                / 42. LP*(   1) B  10                    2.32    7.59    0.140
  19. CR (   1) B   9                / 40. LP (   1) B   9                    0.66    7.58    0.076
  19. CR (   1) B   9                / 44. LP*(   1) B  11                    2.32    7.59    0.140
  20. CR (   1) B  10                / 34. LP*(   1) B   6                    1.50    7.61    0.115
  20. CR (   1) B  10                / 38. LP (   1) B   8                    2.26    7.60    0.141
  20. CR (   1) B  10                / 42. LP*(   1) B  10                    0.67    7.62    0.076
  21. CR (   1) B  11                / 32. LP*(   1) B   5                    1.50    7.61    0.115
  21. CR (   1) B  11                / 40. LP (   1) B   9                    2.26    7.60    0.141
  21. CR (   1) B  11                / 44. LP*(   1) B  11                    0.67    7.62    0.076
  25. LP*(   1) B   2                / 35. LP*(   2) B   6                 1016.13    0.03    0.204
  25. LP*(   1) B   2                / 39. LP*(   2) B   8                    3.02    0.03    0.011
  25. LP*(   1) B   2                / 41. LP*(   2) B   9                    7.27    0.03    0.017
  25. LP*(   1) B   2                / 43. LP*(   2) B  10                    0.76    0.02    0.005
  26. LP*(   2) B   2                / 42. LP*(   1) B  10                    1.70    0.02    0.007
  26. LP*(   2) B   2                / 44. LP*(   1) B  11                    1.16    0.02    0.006
  26. LP*(   2) B   2                / 47. BD*(   1) B   2 - B   3            2.15    0.56    0.062
  26. LP*(   2) B   2                / 48. BD*(   1) B   2 - B   6            8.88    0.50    0.117
  27. LP*(   1) B   3                / 33. LP*(   2) B   5                 1016.13    0.03    0.204
  27. LP*(   1) B   3                / 39. LP*(   2) B   8                    7.27    0.03    0.017
  27. LP*(   1) B   3                / 41. LP*(   2) B   9                    3.02    0.03    0.011
  27. LP*(   1) B   3                / 45. LP*(   2) B  11                    0.76    0.02    0.005
  28. LP*(   2) B   3                / 42. LP*(   1) B  10                    1.16    0.02    0.006
  28. LP*(   2) B   3                / 44. LP*(   1) B  11                    1.70    0.02    0.007
  28. LP*(   2) B   3                / 47. BD*(   1) B   2 - B   3            2.15    0.56    0.062
  28. LP*(   2) B   3                / 49. BD*(   1) B   3 - B   5            8.88    0.50    0.117
  32. LP*(   1) B   5                / 42. LP*(   1) B  10                    0.99    0.01    0.004
  32. LP*(   1) B   5                / 44. LP*(   1) B  11                 2405.90    0.01    0.201
  32. LP*(   1) B   5                / 47. BD*(   1) B   2 - B   3            1.12    0.55    0.039
  32. LP*(   1) B   5                / 49. BD*(   1) B   3 - B   5           28.34    0.49    0.185
  32. LP*(   1) B   5                / 50. BD*(   1) B   5 - B  11           18.48    0.42    0.138
  32. LP*(   1) B   5                / 55. BD*(   1) B   9 - B  11            0.61    0.43    0.025
  34. LP*(   1) B   6                / 42. LP*(   1) B  10                 2405.90    0.01    0.201
  34. LP*(   1) B   6                / 44. LP*(   1) B  11                    0.99    0.01    0.004
  34. LP*(   1) B   6                / 47. BD*(   1) B   2 - B   3            1.12    0.55    0.039
  34. LP*(   1) B   6                / 48. BD*(   1) B   2 - B   6           28.34    0.49    0.185
  34. LP*(   1) B   6                / 51. BD*(   1) B   6 - B  10           18.48    0.42    0.138
  34. LP*(   1) B   6                / 54. BD*(   1) B   8 - B  10            0.61    0.43    0.025
  36. LP (   1) B   7                / 25. LP*(   1) B   2                   31.55    0.02    0.026
  36. LP (   1) B   7                / 27. LP*(   1) B   3                   31.55    0.02    0.026
  36. LP (   1) B   7                / 33. LP*(   2) B   5                    1.35    0.05    0.009
  36. LP (   1) B   7                / 35. LP*(   2) B   6                    1.35    0.05    0.009
  36. LP (   1) B   7                / 39. LP*(   2) B   8                  649.28    0.04    0.198
  36. LP (   1) B   7                / 41. LP*(   2) B   9                  649.28    0.04    0.198
  37. LP*(   2) B   7                / 32. LP*(   1) B   5                   19.96    0.04    0.033
  37. LP*(   2) B   7                / 34. LP*(   1) B   6                   19.96    0.04    0.033
  37. LP*(   2) B   7                / 38. LP (   1) B   8                  538.30    0.03    0.166
  37. LP*(   2) B   7                / 40. LP (   1) B   9                  538.30    0.03    0.166
  37. LP*(   2) B   7                / 42. LP*(   1) B  10                    3.89    0.05    0.017
  37. LP*(   2) B   7                / 44. LP*(   1) B  11                    3.89    0.05    0.017
  37. LP*(   2) B   7                / 52. BD*(   1) B   7 - B   8            0.52    0.55    0.030
  37. LP*(   2) B   7                / 53. BD*(   1) B   7 - B   9            0.52    0.55    0.030
  38. LP (   1) B   8                / 42. LP*(   1) B  10                 3256.03    0.02    0.256
  38. LP (   1) B   8                / 51. BD*(   1) B   6 - B  10            0.63    0.43    0.025
  38. LP (   1) B   8                / 52. BD*(   1) B   7 - B   8           18.82    0.52    0.153
  38. LP (   1) B   8                / 53. BD*(   1) B   7 - B   9            3.98    0.52    0.071
  38. LP (   1) B   8                / 54. BD*(   1) B   8 - B  10           25.25    0.43    0.163
  40. LP (   1) B   9                / 44. LP*(   1) B  11                 3256.03    0.02    0.256
  40. LP (   1) B   9                / 50. BD*(   1) B   5 - B  11            0.63    0.43    0.025
  40. LP (   1) B   9                / 52. BD*(   1) B   7 - B   8            3.98    0.52    0.071
  40. LP (   1) B   9                / 53. BD*(   1) B   7 - B   9           18.82    0.52    0.153
  40. LP (   1) B   9                / 55. BD*(   1) B   9 - B  11           25.25    0.43    0.163
  42. LP*(   1) B  10                / 51. BD*(   1) B   6 - B  10           17.79    0.41    0.139
  42. LP*(   1) B  10                / 54. BD*(   1) B   8 - B  10           24.09    0.42    0.163
  44. LP*(   1) B  11                / 50. BD*(   1) B   5 - B  11           17.79    0.41    0.139
  44. LP*(   1) B  11                / 55. BD*(   1) B   9 - B  11           24.09    0.42    0.163


 Natural Bond Orbitals (Summary):

                                                            Principal Delocalizations
           NBO                        Occupancy    Energy   (geminal,vicinal,remote)
 ====================================================================================
 Molecular unit  1  (B2)
     1. BD (   1) B   1 - B   4          1.61682    -0.19468  37(r),26(r),28(r),22(g)
                                                    29(g),23(g),30(g),38(r)
                                                    40(r),42(r),44(r),52(r)
                                                    53(r),48(r),49(r),32(r)
                                                    34(r)
    11. CR (   1) B   1                  1.99973    -7.13063  22(g),42(r),34(r),38(r)
                                                    23(g),26(r),37(r)
    14. CR (   1) B   4                  1.99973    -7.13063  29(g),44(r),32(r),40(r)
                                                    30(g),28(r),37(r)
    22. LP (   1) B   1                  0.83316     0.39228  29(v),34(r),42(r),26(r)
                                                    37(r),23(g),30(v),38(r)
                                                    46(g),47(r),32(r),52(r)
                                                    54(r),40(r),51(r),28(r)
    23. LP (   2) B   1                  0.82804     0.42943  30(v),38(r),42(r),37(r)
                                                    26(r),22(g),29(v),46(g)
                                                    40(r),28(r),32(r),51(r)
                                                    34(r),48(r),47(r),44(r)
                                                    54(r)
    24. LP*(   3) B   1                  0.59078     0.35177  31(v),36(r),43(r),25(r)
                                                    35(r),39(r),27(r),45(r)
                                                    33(r),41(r)
    29. LP (   1) B   4                  0.83316     0.39228  22(v),32(r),44(r),28(r)
                                                    37(r),30(g),23(v),40(r)
                                                    46(g),47(r),34(r),53(r)
                                                    55(r),38(r),50(r),26(r)
    30. LP (   2) B   4                  0.82804     0.42943  23(v),40(r),44(r),37(r)
                                                    28(r),29(g),22(v),46(g)
                                                    38(r),26(r),34(r),50(r)
                                                    32(r),49(r),47(r),42(r)
                                                    55(r)
    31. LP*(   3) B   4                  0.59078     0.35177  24(v),36(r),45(r),27(r)
                                                    33(r),41(r),25(r),43(r)
                                                    35(r),39(r)
    46. BD*(   1) B   1 - B   4          0.05533     0.89615   
       -------------------------------
              Total Lewis    8.93868  ( 87.8446%)
        Valence non-Lewis    1.23688  ( 12.1554%)
        Rydberg non-Lewis    0.00000  (  0.0000%)
       -------------------------------
            Total unit  1   10.17556  (100.0000%)
           Charge unit  1   -0.17556

 Molecular unit  2  (B9)
     2. BD (   1) B   2 - B   3          1.98063    -0.33594  48(g),49(g),26(g),28(g)
                                                    23(r),30(r),22(r),29(r)
     3. BD (   1) B   2 - B   6          1.96975    -0.30327  22(r),34(g),26(g),51(g)
                                                    23(r),47(g),46(r),30(r)
     4. BD (   1) B   3 - B   5          1.96975    -0.30327  29(r),32(g),28(g),50(g)
                                                    30(r),47(g),46(r),23(r)
     5. BD (   1) B   5 - B  11          1.95415    -0.29256  29(r),32(g),44(g),55(g)
                                                    30(r),49(g),46(r)
     6. BD (   1) B   6 - B  10          1.95415    -0.29256  22(r),34(g),42(g),54(g)
                                                    23(r),48(g),46(r)
     7. BD (   1) B   7 - B   8          1.95609    -0.30854  23(r),38(g),54(g),37(g)
                                                    53(g),46(r),22(r),26(r)
                                                    29(r)
     8. BD (   1) B   7 - B   9          1.95609    -0.30854  30(r),40(g),55(g),37(g)
                                                    52(g),46(r),29(r),28(r)
                                                    22(r)
     9. BD (   1) B   8 - B  10          1.96887    -0.29524  23(r),38(g),42(g),22(r)
                                                    51(g),52(g),46(r),37(v)
    10. BD (   1) B   9 - B  11          1.96887    -0.29524  30(r),40(g),44(g),29(r)
                                                    50(g),53(g),46(r),37(v)
    12. CR (   1) B   2                  1.99952    -7.07399  34(v),26(g),22(r),23(r)
                                                    28(v),46(r)
    13. CR (   1) B   3                  1.99952    -7.07399  32(v),28(g),29(r),30(r)
                                                    26(v),46(r)
    15. CR (   1) B   5                  1.99949    -7.06487  29(r),28(v),44(v),32(g)
                                                    46(r)
    16. CR (   1) B   6                  1.99949    -7.06487  22(r),26(v),42(v),34(g)
                                                    46(r)
    17. CR (   1) B   7                  1.99951    -7.10457  37(g),38(v),40(v),23(r)
                                                    30(r),22(r),29(r)
    18. CR (   1) B   8                  1.99952    -7.05904  23(r),42(v),38(g),37(v)
    19. CR (   1) B   9                  1.99952    -7.05904  30(r),44(v),40(g),37(v)
    20. CR (   1) B  10                  1.99948    -7.08729  38(v),22(r),23(r),34(v)
                                                    42(g),46(r)
    21. CR (   1) B  11                  1.99948    -7.08729  40(v),29(r),30(r),32(v)
                                                    44(g),46(r)
    25. LP*(   1) B   2                  0.62239     0.38439  27(v),35(v),24(r),36(r)
                                                    41(r),31(r),39(r)
    26. LP*(   2) B   2                  0.49241     0.51097  28(v),34(v),22(r),23(r)
                                                    38(r),32(r),46(r),48(g)
                                                    30(r),47(g),42(r),40(r)
                                                    44(r)
    27. LP*(   1) B   3                  0.62239     0.38439  25(v),33(v),31(r),36(r)
                                                    39(r),24(r),41(r)
    28. LP*(   2) B   3                  0.49241     0.51097  26(v),32(v),29(r),30(r)
                                                    40(r),34(r),46(r),49(g)
                                                    23(r),47(g),44(r),38(r)
                                                    42(r)
    32. LP*(   1) B   5                  0.62410     0.51919  34(r),28(v),44(v),29(r)
                                                    40(r),49(g),26(r),50(g)
                                                    37(r),23(r),47(v),30(r)
                                                    22(r),55(v),38(r),42(r)
                                                    46(r)
    33. LP*(   2) B   5                  0.49265     0.41296  35(r),45(v),27(v),31(r)
                                                    39(r),41(r),43(r),24(r)
                                                    36(r)
    34. LP*(   1) B   6                  0.62410     0.51919  32(r),26(v),42(v),22(r)
                                                    38(r),48(g),28(r),51(g)
                                                    37(r),30(r),47(v),23(r)
                                                    29(r),54(v),40(r),44(r)
                                                    46(r)
    35. LP*(   2) B   6                  0.49265     0.41296  33(r),43(v),25(v),24(r)
                                                    41(r),39(r),45(r),31(r)
                                                    36(r)
    36. LP (   1) B   7                  0.63463     0.36793  39(v),41(v),24(r),31(r)
                                                    25(r),27(r),33(r),35(r)
    37. LP*(   2) B   7                  0.45959     0.48177  23(r),30(r),38(v),40(v)
                                                    22(r),29(r),32(r),34(r)
                                                    42(r),44(r)
    38. LP (   1) B   8                  0.62602     0.51672  40(r),42(v),23(r),37(v)
                                                    26(r),34(r),54(g),52(g)
                                                    22(r),53(v),30(r),46(r)
                                                    28(r),51(v),32(r),29(r)
    39. LP*(   2) B   8                  0.51382     0.41129  41(r),43(v),36(v),24(r)
                                                    33(r),35(r),27(r),25(r)
                                                    31(r)
    40. LP (   1) B   9                  0.62602     0.51672  38(r),44(v),30(r),37(v)
                                                    28(r),32(r),55(g),53(g)
                                                    29(r),52(v),23(r),46(r)
                                                    26(r),50(v),34(r),22(r)
    41. LP*(   2) B   9                  0.51382     0.41129  39(r),45(v),36(v),31(r)
                                                    35(r),33(r),25(r),27(r)
                                                    24(r)
    42. LP*(   1) B  10                  0.57087     0.53183  44(r),38(v),34(v),23(r)
                                                    22(r),54(g),51(g),46(r)
                                                    37(r),26(r),28(r),30(r)
    43. LP*(   2) B  10                  0.46305     0.40560  45(r),39(v),35(v),24(r)
                                                    33(r),31(r)
    44. LP*(   1) B  11                  0.57087     0.53183  42(r),40(v),32(v),30(r)
                                                    29(r),55(g),50(g),46(r)
                                                    37(r),28(r),26(r),23(r)
    45. LP*(   2) B  11                  0.46305     0.40560  43(r),41(v),33(v),31(r)
                                                    35(r),24(r)
    47. BD*(   1) B   2 - B   3          0.01353     1.06992   
    48. BD*(   1) B   2 - B   6          0.02557     1.01195   
    49. BD*(   1) B   3 - B   5          0.02557     1.01195   
    50. BD*(   1) B   5 - B  11          0.03168     0.94215   
    51. BD*(   1) B   6 - B  10          0.03168     0.94215   
    52. BD*(   1) B   7 - B   8          0.03040     1.03228   
    53. BD*(   1) B   7 - B   9          0.03040     1.03228   
    54. BD*(   1) B   8 - B  10          0.02844     0.94792   
    55. BD*(   1) B   9 - B  11          0.02844     0.94792   
       -------------------------------
              Total Lewis   37.56056  ( 81.9662%)
        Valence non-Lewis    8.26389  ( 18.0338%)
        Rydberg non-Lewis    0.00000  (  0.0000%)
       -------------------------------
            Total unit  2   45.82444  (100.0000%)
           Charge unit  2   -0.82444
 1|1|UNPC-X500|SP|RHF|STO-3G|B11(1-)|SOBEREVA|05-May-2012|0||# HF/sto-3
 g pop=nboread||b3lyp/6-311+G* opted||-1,1|B,0,0.,0.88548,0.02740809|B,
 0,0.,0.78898,-1.81538691|B,0,0.,-0.78898,-1.81538691|B,0,0.,-0.88548,0
 .02740809|B,0,0.,-2.14952,-1.11929891|B,0,0.,2.14952,-1.11929891|B,0,0
 .,0.,1.75610309|B,0,0.,1.559697,1.61968009|B,0,0.,-1.559697,1.61968009
 |B,0,0.,2.507231,0.40954609|B,0,0.,-2.507231,0.40954609||Version=IA32W
 -G09RevA.02|State=1-A1|HF=-267.5353728|RMSD=2.229e-009|Dipole=0.,0.,-0
 .0389709|Quadrupole=10.4677077,-7.0129249,-3.4547827,0.,0.,0.|PG=C02V 
 [C2(B1),SGV(B10)]||@


 IN THE FIGHT BETWEEN YOU AND THE WORLD, BACK THE WORLD

                                        -- FRANZ KAFKA
 Job cpu time:  0 days  0 hours  0 minutes  7.0 seconds.
 File lengths (MBytes):  RWF=      5 Int=      0 D2E=      0 Chk=      4 Scr=      1
 Normal termination of Gaussian 09 at Sat May 05 21:54:26 2012.
