 Default is to use a total of   4 processors:
                                4 via shared-memory
                                1 via Linda
 Entering Link 1 = d:\study\G09W\l1.exe PID=      7708.
  
 Copyright (c) 1988,1990,1992,1993,1995,1998,2003,2009,2013,
            Gaussian, Inc.  All Rights Reserved.
  
 This is part of the Gaussian(R) 09 program.  It is based on
 the Gaussian(R) 03 system (copyright 2003, Gaussian, Inc.),
 the Gaussian(R) 98 system (copyright 1998, Gaussian, Inc.),
 the Gaussian(R) 94 system (copyright 1995, Gaussian, Inc.),
 the Gaussian 92(TM) system (copyright 1992, Gaussian, Inc.),
 the Gaussian 90(TM) system (copyright 1990, Gaussian, Inc.),
 the Gaussian 88(TM) system (copyright 1988, Gaussian, Inc.),
 the Gaussian 86(TM) system (copyright 1986, Carnegie Mellon
 University), and the Gaussian 82(TM) system (copyright 1983,
 Carnegie Mellon University). Gaussian is a federally registered
 trademark of Gaussian, Inc.
  
 This software contains proprietary and confidential information,
 including trade secrets, belonging to Gaussian, Inc.
  
 This software is provided under written license and may be
 used, copied, transmitted, or stored only in accord with that
 written license.
  
 The following legend is applicable only to US Government
 contracts under FAR:
  
                    RESTRICTED RIGHTS LEGEND
  
 Use, reproduction and disclosure by the US Government is
 subject to restrictions as set forth in subparagraphs (a)
 and (c) of the Commercial Computer Software - Restricted
 Rights clause in FAR 52.227-19.
  
 Gaussian, Inc.
 340 Quinnipiac St., Bldg. 40, Wallingford CT 06492
  
  
 ---------------------------------------------------------------
 Warning -- This program may not be used in any manner that
 competes with the business of Gaussian, Inc. or will provide
 assistance to any competitor of Gaussian, Inc.  The licensee
 of this program is prohibited from giving any competitor of
 Gaussian, Inc. access to this program.  By using this program,
 the user acknowledges that Gaussian, Inc. is engaged in the
 business of creating and licensing software in the field of
 computational chemistry and represents and warrants to the
 licensee that it is not a competitor of Gaussian, Inc. and that
 it will not use this program in any manner prohibited above.
 ---------------------------------------------------------------
  

 Cite this work as:
 Gaussian 09, Revision D.01,
 M. J. Frisch, G. W. Trucks, H. B. Schlegel, G. E. Scuseria, 
 M. A. Robb, J. R. Cheeseman, G. Scalmani, V. Barone, B. Mennucci, 
 G. A. Petersson, H. Nakatsuji, M. Caricato, X. Li, H. P. Hratchian, 
 A. F. Izmaylov, J. Bloino, G. Zheng, J. L. Sonnenberg, M. Hada, 
 M. Ehara, K. Toyota, R. Fukuda, J. Hasegawa, M. Ishida, T. Nakajima, 
 Y. Honda, O. Kitao, H. Nakai, T. Vreven, J. A. Montgomery, Jr., 
 J. E. Peralta, F. Ogliaro, M. Bearpark, J. J. Heyd, E. Brothers, 
 K. N. Kudin, V. N. Staroverov, T. Keith, R. Kobayashi, J. Normand, 
 K. Raghavachari, A. Rendell, J. C. Burant, S. S. Iyengar, J. Tomasi, 
 M. Cossi, N. Rega, J. M. Millam, M. Klene, J. E. Knox, J. B. Cross, 
 V. Bakken, C. Adamo, J. Jaramillo, R. Gomperts, R. E. Stratmann, 
 O. Yazyev, A. J. Austin, R. Cammi, C. Pomelli, J. W. Ochterski, 
 R. L. Martin, K. Morokuma, V. G. Zakrzewski, G. A. Voth, 
 P. Salvador, J. J. Dannenberg, S. Dapprich, A. D. Daniels, 
 O. Farkas, J. B. Foresman, J. V. Ortiz, J. Cioslowski, 
 and D. J. Fox, Gaussian, Inc., Wallingford CT, 2013.
 
 ******************************************
 Gaussian 09:  IA32W-G09RevD.01 24-Apr-2013
                14-May-2017 
 ******************************************
 %chk=C:\Li5+.chk
 -----------------------------
 # b3lyp/6-311g(d) pop=nboread
 -----------------------------
 1/38=1/1;
 2/12=2,17=6,18=5,40=1/2;
 3/5=4,6=6,7=1,11=2,16=1,25=1,30=1,74=-5/1,2,3;
 4//1;
 5/5=2,38=5/2;
 6/7=2,8=2,9=2,10=2,28=1,40=2/1,7;
 99/5=1,9=1/99;
 --------------------
 b3lyp/6-311+G* opted
 --------------------
 Symbolic Z-matrix:
 Charge =  1 Multiplicity = 1
 Li                    0.        1.55361   0. 
 Li                   -1.34547  -0.77681   0. 
 Li                    1.34547  -0.77681   0. 
 Li                    0.        0.        2.738 
 Li                    0.        0.       -2.738 
 
                          Input orientation:                          
 ---------------------------------------------------------------------
 Center     Atomic      Atomic             Coordinates (Angstroms)
 Number     Number       Type             X           Y           Z
 ---------------------------------------------------------------------
      1          3           0        0.000000    1.553614    0.000000
      2          3           0       -1.345469   -0.776807    0.000000
      3          3           0        1.345469   -0.776807    0.000000
      4          3           0        0.000000    0.000000    2.737999
      5          3           0        0.000000    0.000000   -2.737999
 ---------------------------------------------------------------------
                    Distance matrix (angstroms):
                    1          2          3          4          5
     1  Li   0.000000
     2  Li   2.690938   0.000000
     3  Li   2.690938   2.690938   0.000000
     4  Li   3.148072   3.148072   3.148072   0.000000
     5  Li   3.148072   3.148072   3.148072   5.475998   0.000000
 Stoichiometry    Li5(1+)
 Framework group  D3H[C3(Li.Li),3C2(Li)]
 Deg. of freedom     2
 Full point group                 D3H     NOp  12
 Largest Abelian subgroup         C2V     NOp   4
 Largest concise Abelian subgroup C2V     NOp   4
                         Standard orientation:                         
 ---------------------------------------------------------------------
 Center     Atomic      Atomic             Coordinates (Angstroms)
 Number     Number       Type             X           Y           Z
 ---------------------------------------------------------------------
      1          3           0        0.000000    1.553614    0.000000
      2          3           0       -1.345469   -0.776807    0.000000
      3          3           0        1.345469   -0.776807    0.000000
      4          3           0        0.000000    0.000000    2.737999
      5          3           0        0.000000    0.000000   -2.737999
 ---------------------------------------------------------------------
 Rotational constants (GHZ):      9.9476347      3.8698229      3.8698229
 Standard basis: 6-311G(d) (5D, 7F)
 There are    38 symmetry adapted cartesian basis functions of A1  symmetry.
 There are    11 symmetry adapted cartesian basis functions of A2  symmetry.
 There are    23 symmetry adapted cartesian basis functions of B1  symmetry.
 There are    23 symmetry adapted cartesian basis functions of B2  symmetry.
 There are    35 symmetry adapted basis functions of A1  symmetry.
 There are    11 symmetry adapted basis functions of A2  symmetry.
 There are    22 symmetry adapted basis functions of B1  symmetry.
 There are    22 symmetry adapted basis functions of B2  symmetry.
    90 basis functions,   160 primitive gaussians,    95 cartesian basis functions
     7 alpha electrons        7 beta electrons
       nuclear repulsion energy        15.2564798625 Hartrees.
 NAtoms=    5 NActive=    5 NUniq=    2 SFac= 4.00D+00 NAtFMM=   60 NAOKFM=F Big=F
 Integral buffers will be    262144 words long.
 Raffenetti 2 integral format.
 Two-electron integral symmetry is turned on.
 One-electron integrals computed using PRISM.
 NBasis=    90 RedAO= T EigKep=  4.93D-04  NBF=    35    11    22    22
 NBsUse=    90 1.00D-06 EigRej= -1.00D+00 NBFU=    35    11    22    22
 ExpMin= 2.44D-02 ExpMax= 9.00D+02 ExpMxC= 1.34D+02 IAcc=3 IRadAn=         5 AccDes= 0.00D+00
 Harris functional with IExCor=  402 and IRadAn=       5 diagonalized for initial guess.
 HarFok:  IExCor=  402 AccDes= 0.00D+00 IRadAn=         5 IDoV= 1 UseB2=F ITyADJ=14
 ICtDFT=  3500011 ScaDFX=  1.000000  1.000000  1.000000  1.000000
 FoFCou: FMM=F IPFlag=           0 FMFlag=      100000 FMFlg1=           0
         NFxFlg=           0 DoJE=T BraDBF=F KetDBF=T FulRan=T
         wScrn=  0.000000 ICntrl=     500 IOpCl=  0 I1Cent=   200000004 NGrid=           0
         NMat0=    1 NMatS0=      1 NMatT0=    0 NMatD0=    1 NMtDS0=    0 NMtDT0=    0
 Petite list used in FoFCou.
 Initial guess orbital symmetries:
       Occupied  (A1') (E') (E') (A2") (A1') (A1') (A2")
       Virtual   (E') (E') (A1') (E") (E") (A2") (A1') (E') (E')
                 (E') (E') (E') (E') (A1') (A2") (E") (E") (A2')
                 (A1') (A2") (E') (E') (E") (E") (A1') (E') (E')
                 (A1') (E") (E") (A1') (A2') (E') (E') (A2") (A2")
                 (E') (E') (A2") (A1') (E") (E") (E') (E') (A1')
                 (A2") (E') (E') (E") (E") (A2') (E") (E") (E')
                 (E') (E') (E') (E') (E') (E") (E") (A1') (A1")
                 (A1') (A2") (E") (E") (E') (E') (A1') (E') (E')
                 (A2") (E') (E') (E") (E") (A2') (A1') (A2") (A1')
                 (E') (E')
 The electronic state of the initial guess is 1-A1'.
 Keep R1 ints in memory in symmetry-blocked form, NReq=10565296.
 Requested convergence on RMS density matrix=1.00D-08 within 128 cycles.
 Requested convergence on MAX density matrix=1.00D-06.
 Requested convergence on             energy=1.00D-06.
 No special actions if energy rises.
 SCF Done:  E(RB3LYP) =  -37.4288560260     A.U. after    8 cycles
            NFock=  8  Conv=0.64D-08     -V/T= 2.0096

 **********************************************************************

            Population analysis using the SCF density.

 **********************************************************************

 Orbital symmetries:
       Occupied  (A1') (E') (E') (A2") (A1') (A1') (A2")
       Virtual   (E') (E') (A1') (E") (E") (A2") (A1') (E') (E')
                 (E') (E') (E') (E') (A2") (A1') (E") (E") (A2')
                 (A1') (A2") (E") (E") (E') (E') (A1') (A1') (E')
                 (E') (E") (E") (A1') (A2') (E') (E') (A2") (A2")
                 (E') (E') (A2") (E") (E") (A1') (E') (E') (A1')
                 (A2") (E') (E') (E") (E") (A2') (E') (E') (E")
                 (E") (E') (E') (E') (E') (E") (E") (A1') (A1")
                 (A1') (A2") (E") (E") (E') (E') (A1') (E') (E')
                 (A2") (E") (E") (E') (E') (A2') (A1') (A2") (A1')
                 (E') (E')
 The electronic state is 1-A1'.
 Alpha  occ. eigenvalues --   -2.13940  -2.13879  -2.13879  -2.12850  -2.12849
 Alpha  occ. eigenvalues --   -0.32032  -0.26012
 Alpha virt. eigenvalues --   -0.19398  -0.19398  -0.16264  -0.14815  -0.14815
 Alpha virt. eigenvalues --   -0.13375  -0.13284  -0.11952  -0.11952  -0.08217
 Alpha virt. eigenvalues --   -0.08217  -0.06277  -0.06277  -0.05432  -0.05293
 Alpha virt. eigenvalues --   -0.04689  -0.04689  -0.04240  -0.03727  -0.03236
 Alpha virt. eigenvalues --   -0.02496  -0.02496  -0.02465  -0.02465  -0.01059
 Alpha virt. eigenvalues --   -0.00263   0.00276   0.00276   0.03093   0.03093
 Alpha virt. eigenvalues --    0.03565   0.03608   0.03811   0.03811   0.04785
 Alpha virt. eigenvalues --    0.07412   0.08610   0.08610   0.21139   0.21979
 Alpha virt. eigenvalues --    0.21979   0.22858   0.26873   0.26873   0.27048
 Alpha virt. eigenvalues --    0.28937   0.29314   0.29314   0.29890   0.29890
 Alpha virt. eigenvalues --    0.31792   0.31927   0.31927   0.32494   0.32494
 Alpha virt. eigenvalues --    0.33018   0.33018   0.38271   0.38271   0.39387
 Alpha virt. eigenvalues --    0.39387   0.40906   0.44514   0.47050   0.47602
 Alpha virt. eigenvalues --    0.48917   0.48917   0.53233   0.53233   0.56147
 Alpha virt. eigenvalues --    0.60038   0.60038   0.61696   0.69381   0.69381
 Alpha virt. eigenvalues --    0.70271   0.70271   0.73524   3.41496   3.54592
 Alpha virt. eigenvalues --    3.65371   3.67209   3.67209
          Condensed to atoms (all electrons):
               1          2          3          4          5
     1  Li   2.241355   0.097649   0.097649   0.136671   0.136671
     2  Li   0.097649   2.241355   0.097649   0.136671   0.136671
     3  Li   0.097649   0.097649   2.241355   0.136671   0.136671
     4  Li   0.136671   0.136671   0.136671   2.583524  -0.058528
     5  Li   0.136671   0.136671   0.136671  -0.058528   2.583524
 Mulliken charges:
               1
     1  Li   0.290006
     2  Li   0.290006
     3  Li   0.290006
     4  Li   0.064991
     5  Li   0.064991
 Sum of Mulliken charges =   1.00000
 Mulliken charges with hydrogens summed into heavy atoms:
               1
     1  Li   0.290006
     2  Li   0.290006
     3  Li   0.290006
     4  Li   0.064991
     5  Li   0.064991
 Electronic spatial extent (au):  <R**2>=            246.2069
 Charge=              1.0000 electrons
 Dipole moment (field-independent basis, Debye):
    X=              0.0000    Y=              0.0000    Z=              0.0000  Tot=              0.0000
 Quadrupole moment (field-independent basis, Debye-Ang):
   XX=             -9.9671   YY=             -9.9671   ZZ=              9.1669
   XY=              0.0000   XZ=              0.0000   YZ=              0.0000
 Traceless Quadrupole moment (field-independent basis, Debye-Ang):
   XX=             -6.3780   YY=             -6.3780   ZZ=             12.7560
   XY=              0.0000   XZ=              0.0000   YZ=              0.0000
 Octapole moment (field-independent basis, Debye-Ang**2):
  XXX=              0.0000  YYY=             12.4749  ZZZ=              0.0000  XYY=              0.0000
  XXY=            -12.4749  XXZ=              0.0000  XZZ=              0.0000  YZZ=              0.0000
  YYZ=              0.0000  XYZ=              0.0000
 Hexadecapole moment (field-independent basis, Debye-Ang**3):
 XXXX=            -83.7900 YYYY=            -83.7900 ZZZZ=             30.6027 XXXY=              0.0000
 XXXZ=              0.0000 YYYX=              0.0000 YYYZ=              0.0000 ZZZX=              0.0000
 ZZZY=              0.0000 XXYY=            -27.9300 XXZZ=            -99.7034 YYZZ=            -99.7034
 XXYZ=              0.0000 YYXZ=              0.0000 ZZXY=              0.0000
 N-N= 1.525647986248D+01 E-N=-1.145537799685D+02  KE= 3.707412223778D+01
 Symmetry A1   KE= 2.219122901804D+01
 Symmetry A2   KE=-8.365202768685D-18
 Symmetry B1   KE= 7.181952181377D+00
 Symmetry B2   KE= 7.700941038360D+00
 ******************************Gaussian NBO Version 3.1******************************
             N A T U R A L   A T O M I C   O R B I T A L   A N D
          N A T U R A L   B O N D   O R B I T A L   A N A L Y S I S
 ******************************Gaussian NBO Version 3.1******************************

       /RESON  / : Allow strongly delocalized NBO set
       /AONAO  / : Print the AO to NAO transformation
       /DMNAO  / : Print the NAO density matrix

 Analyzing the SCF density

 Job title: b3lyp/6-311+G* opted                                            

 Storage needed:     24744 in NPA,     32713 in NBO ( 183500692 available)


 NATURAL POPULATIONS:  Natural atomic orbital occupancies 
                                                          
   NAO  Atom  No  lang   Type(AO)    Occupancy      Energy
 ----------------------------------------------------------
     1   Li    1  S      Cor( 1S)     1.99597      -2.12724
     2   Li    1  S      Val( 2S)     0.37702      -0.06262
     3   Li    1  S      Ryd( 3S)     0.00004       0.08962
     4   Li    1  S      Ryd( 4S)     0.00000       3.06396
     5   Li    1  px     Val( 2p)     0.00143      -0.07037
     6   Li    1  px     Ryd( 3p)     0.00012       0.04556
     7   Li    1  px     Ryd( 4p)     0.00001       0.30446
     8   Li    1  py     Val( 2p)     0.17225      -0.04117
     9   Li    1  py     Ryd( 3p)     0.00192       0.00337
    10   Li    1  py     Ryd( 4p)     0.00007       0.32879
    11   Li    1  pz     Val( 2p)     0.36712      -0.12864
    12   Li    1  pz     Ryd( 3p)     0.00113       0.05676
    13   Li    1  pz     Ryd( 4p)     0.00001       0.28170
    14   Li    1  dxy    Ryd( 3d)     0.00000       0.63054
    15   Li    1  dxz    Ryd( 3d)     0.00000       0.37502
    16   Li    1  dyz    Ryd( 3d)     0.00163       0.50082
    17   Li    1  dx2y2  Ryd( 3d)     0.00072       0.52396
    18   Li    1  dz2    Ryd( 3d)     0.00026       0.54049

    19   Li    2  S      Cor( 1S)     1.99597      -2.12724
    20   Li    2  S      Val( 2S)     0.37702      -0.06262
    21   Li    2  S      Ryd( 3S)     0.00004       0.08962
    22   Li    2  S      Ryd( 4S)     0.00000       3.06396
    23   Li    2  px     Val( 2p)     0.12955      -0.04847
    24   Li    2  px     Ryd( 3p)     0.00147       0.01392
    25   Li    2  px     Ryd( 4p)     0.00005       0.32271
    26   Li    2  py     Val( 2p)     0.04413      -0.06307
    27   Li    2  py     Ryd( 3p)     0.00057       0.03501
    28   Li    2  py     Ryd( 4p)     0.00002       0.31055
    29   Li    2  pz     Val( 2p)     0.36712      -0.12864
    30   Li    2  pz     Ryd( 3p)     0.00113       0.05676
    31   Li    2  pz     Ryd( 4p)     0.00001       0.28170
    32   Li    2  dxy    Ryd( 3d)     0.00054       0.55061
    33   Li    2  dxz    Ryd( 3d)     0.00122       0.46937
    34   Li    2  dyz    Ryd( 3d)     0.00041       0.40647
    35   Li    2  dx2y2  Ryd( 3d)     0.00018       0.60390
    36   Li    2  dz2    Ryd( 3d)     0.00026       0.54049

    37   Li    3  S      Cor( 1S)     1.99597      -2.12724
    38   Li    3  S      Val( 2S)     0.37702      -0.06262
    39   Li    3  S      Ryd( 3S)     0.00004       0.08962
    40   Li    3  S      Ryd( 4S)     0.00000       3.06396
    41   Li    3  px     Val( 2p)     0.12955      -0.04847
    42   Li    3  px     Ryd( 3p)     0.00147       0.01392
    43   Li    3  px     Ryd( 4p)     0.00005       0.32271
    44   Li    3  py     Val( 2p)     0.04413      -0.06307
    45   Li    3  py     Ryd( 3p)     0.00057       0.03501
    46   Li    3  py     Ryd( 4p)     0.00002       0.31055
    47   Li    3  pz     Val( 2p)     0.36712      -0.12864
    48   Li    3  pz     Ryd( 3p)     0.00113       0.05676
    49   Li    3  pz     Ryd( 4p)     0.00001       0.28170
    50   Li    3  dxy    Ryd( 3d)     0.00054       0.55061
    51   Li    3  dxz    Ryd( 3d)     0.00122       0.46937
    52   Li    3  dyz    Ryd( 3d)     0.00041       0.40647
    53   Li    3  dx2y2  Ryd( 3d)     0.00018       0.60390
    54   Li    3  dz2    Ryd( 3d)     0.00026       0.54049

    55   Li    4  S      Cor( 1S)     1.99888      -2.12036
    56   Li    4  S      Val( 2S)     0.56550      -0.15717
    57   Li    4  S      Ryd( 3S)     0.00021       1.59845
    58   Li    4  S      Ryd( 4S)     0.00001       1.85913
    59   Li    4  px     Val( 2p)     0.00007      -0.04729
    60   Li    4  px     Ryd( 3p)     0.00005       0.04888
    61   Li    4  px     Ryd( 4p)     0.00000       0.31700
    62   Li    4  py     Val( 2p)     0.00007      -0.04729
    63   Li    4  py     Ryd( 3p)     0.00005       0.04888
    64   Li    4  py     Ryd( 4p)     0.00000       0.31700
    65   Li    4  pz     Val( 2p)     0.05526       0.01230
    66   Li    4  pz     Ryd( 3p)     0.00020       0.09287
    67   Li    4  pz     Ryd( 4p)     0.00005       0.34375
    68   Li    4  dxy    Ryd( 3d)     0.00000       0.36857
    69   Li    4  dxz    Ryd( 3d)     0.00000       0.48715
    70   Li    4  dyz    Ryd( 3d)     0.00000       0.48715
    71   Li    4  dx2y2  Ryd( 3d)     0.00000       0.36857
    72   Li    4  dz2    Ryd( 3d)     0.00011       0.48888

    73   Li    5  S      Cor( 1S)     1.99888      -2.12036
    74   Li    5  S      Val( 2S)     0.56550      -0.15717
    75   Li    5  S      Ryd( 3S)     0.00021       1.59845
    76   Li    5  S      Ryd( 4S)     0.00001       1.85913
    77   Li    5  px     Val( 2p)     0.00007      -0.04729
    78   Li    5  px     Ryd( 3p)     0.00005       0.04888
    79   Li    5  px     Ryd( 4p)     0.00000       0.31700
    80   Li    5  py     Val( 2p)     0.00007      -0.04729
    81   Li    5  py     Ryd( 3p)     0.00005       0.04888
    82   Li    5  py     Ryd( 4p)     0.00000       0.31700
    83   Li    5  pz     Val( 2p)     0.05526       0.01230
    84   Li    5  pz     Ryd( 3p)     0.00020       0.09287
    85   Li    5  pz     Ryd( 4p)     0.00005       0.34375
    86   Li    5  dxy    Ryd( 3d)     0.00000       0.36857
    87   Li    5  dxz    Ryd( 3d)     0.00000       0.48715
    88   Li    5  dyz    Ryd( 3d)     0.00000       0.48715
    89   Li    5  dx2y2  Ryd( 3d)     0.00000       0.36857
    90   Li    5  dz2    Ryd( 3d)     0.00011       0.48888

 WARNING:  1 low occupancy (<1.9990e) core orbital  found on Li    1
           1 low occupancy (<1.9990e) core orbital  found on Li    2
           1 low occupancy (<1.9990e) core orbital  found on Li    3
           1 low occupancy (<1.9990e) core orbital  found on Li    4
           1 low occupancy (<1.9990e) core orbital  found on Li    5


 Summary of Natural Population Analysis:                  
                                                          
                                       Natural Population 
                Natural  -----------------------------------------------
    Atom  No    Charge         Core      Valence    Rydberg      Total
 -----------------------------------------------------------------------
     Li    1    0.08032      1.99597     0.91782    0.00590     2.91968
     Li    2    0.08032      1.99597     0.91782    0.00590     2.91968
     Li    3    0.08032      1.99597     0.91782    0.00590     2.91968
     Li    4    0.37952      1.99888     0.62091    0.00068     2.62048
     Li    5    0.37952      1.99888     0.62091    0.00068     2.62048
 =======================================================================
   * Total *    1.00000      9.98567     3.99528    0.01905    14.00000

                                 Natural Population      
 --------------------------------------------------------
   Core                       9.98567 ( 99.8567% of  10)
   Valence                    3.99528 ( 99.8821% of   4)
   Natural Minimal Basis     13.98095 ( 99.8639% of  14)
   Natural Rydberg Basis      0.01905 (  0.1361% of  14)
 --------------------------------------------------------

    Atom  No          Natural Electron Configuration
 ----------------------------------------------------------------------------
     Li    1      [core]2S( 0.38)2p( 0.54)
     Li    2      [core]2S( 0.38)2p( 0.54)
     Li    3      [core]2S( 0.38)2p( 0.54)
     Li    4      [core]2S( 0.57)2p( 0.06)
     Li    5      [core]2S( 0.57)2p( 0.06)


 NAOs in the AO basis:                                                         

          AO         1       2       3       4       5       6       7       8
      ---------- ------- ------- ------- ------- ------- ------- ------- -------
   1. Li 1 (S)    0.6281  0.1151 -0.2069 -1.5899  0.0000  0.0000  0.0000 -0.1292
   2. Li 1 (S)    0.4177 -0.4832  0.0808  1.6886  0.0000  0.0000  0.0000  0.2674
   3. Li 1 (px)   0.0000  0.0000  0.0000  0.0000  0.1995 -0.4022  1.2399  0.0000
   4. Li 1 (py)  -0.0005 -0.0298 -0.3084  0.0225  0.0000  0.0000  0.0000  0.1913
   5. Li 1 (pz)   0.0000  0.0000  0.0000  0.0000  0.0000  0.0000  0.0000  0.0000
   6. Li 1 (S)    0.0819  1.9740  2.7283 -0.0091  0.0000  0.0000  0.0000 -1.1491
   7. Li 1 (px)   0.0000  0.0000  0.0000  0.0000  1.2079 -1.0359 -2.2132  0.0000
   8. Li 1 (py)  -0.0491 -0.6774  1.6099 -0.8459  0.0000  0.0000  0.0000  1.5522
   9. Li 1 (pz)   0.0000  0.0000  0.0000  0.0000  0.0000  0.0000  0.0000  0.0000
  10. Li 1 (S)    0.0976  0.4821-30.8533  7.4504  0.0000  0.0000  0.0000 -1.8665
  11. Li 1 (px)   0.0000  0.0000  0.0000  0.0000  0.4216  2.7484  2.4221  0.0000
  12. Li 1 (py)  -0.0411  0.0123  9.4516 -2.0715  0.0000  0.0000  0.0000  0.7989
  13. Li 1 (pz)   0.0000  0.0000  0.0000  0.0000  0.0000  0.0000  0.0000  0.0000
  14. Li 1 (d5)   0.0000 -0.0009 -0.0205 -0.0446  0.0000  0.0000  0.0000 -0.0020
  15. Li 1 (d2)   0.0000  0.0000  0.0000  0.0000  0.0000  0.0000  0.0000  0.0000
  16. Li 1 (d3)   0.0000  0.0000  0.0000  0.0000  0.0000  0.0000  0.0000  0.0000
  17. Li 1 (d4)  -0.0001  0.0080  0.1196 -0.0534  0.0000  0.0000  0.0000 -0.0032
  18. Li 1 (d1)   0.0000  0.0000  0.0000  0.0000  0.0065  0.0017  0.0920  0.0000
  19. Li 2 (S)   -0.0008 -0.0678  0.0465 -0.0218  0.0793 -0.0933 -0.0342  0.0972
  20. Li 2 (S)    0.0124  0.1438 -0.0469  0.0558 -0.1278  0.1562  0.0311 -0.1172
  21. Li 2 (px)  -0.0003 -0.0016  0.0215  0.0401 -0.0040  0.0277  0.0286  0.0038
  22. Li 2 (py)  -0.0005 -0.0111 -0.0726  0.0538  0.0255 -0.1053 -0.0510  0.0079
  23. Li 2 (pz)   0.0000  0.0000  0.0000  0.0000  0.0000  0.0000  0.0000  0.0000
  24. Li 2 (S)   -0.0420 -0.6106  0.4434 -0.1496  0.5800 -0.7242 -0.4052  0.5693
  25. Li 2 (px)  -0.0209 -0.1915  0.1198 -0.2537  0.1735 -0.6638  0.1005  0.2570
  26. Li 2 (py)  -0.0396 -0.4135  0.7946 -0.5678  0.4069 -0.1719 -0.5057  0.4259
  27. Li 2 (pz)   0.0000  0.0000  0.0000  0.0000  0.0000  0.0000  0.0000  0.0000
  28. Li 2 (S)   -0.0623 -0.2683  9.3851 -2.6903  0.8431 -0.9867  0.0619  0.9019
  29. Li 2 (px)  -0.0167 -0.0512  1.5540 -0.5455  0.1481 -0.8222 -0.6794  0.1966
  30. Li 2 (py)  -0.0314 -0.1437  3.2907 -0.8237  0.2153  0.7543  1.0404  0.3131
  31. Li 2 (pz)   0.0000  0.0000  0.0000  0.0000  0.0000  0.0000  0.0000  0.0000
  32. Li 2 (d5)   0.0000  0.0011  0.0200  0.0230 -0.0006 -0.0001 -0.0080 -0.0016
  33. Li 2 (d2)   0.0000  0.0000  0.0000  0.0000  0.0000  0.0000  0.0000  0.0000
  34. Li 2 (d3)   0.0000  0.0000  0.0000  0.0000  0.0000  0.0000  0.0000  0.0000
  35. Li 2 (d4)   0.0000  0.0005  0.0110  0.0217  0.0032  0.0008  0.0451 -0.0012
  36. Li 2 (d1)   0.0000 -0.0012 -0.0263 -0.0571  0.0028  0.0007  0.0399  0.0020
  37. Li 3 (S)   -0.0008 -0.0678  0.0465 -0.0218 -0.0793  0.0933  0.0342  0.0972
  38. Li 3 (S)    0.0124  0.1438 -0.0469  0.0558  0.1278 -0.1562 -0.0311 -0.1172
  39. Li 3 (px)   0.0003  0.0016 -0.0215 -0.0401 -0.0040  0.0277  0.0286 -0.0038
  40. Li 3 (py)  -0.0005 -0.0111 -0.0726  0.0538 -0.0255  0.1053  0.0510  0.0079
  41. Li 3 (pz)   0.0000  0.0000  0.0000  0.0000  0.0000  0.0000  0.0000  0.0000
  42. Li 3 (S)   -0.0420 -0.6106  0.4434 -0.1496 -0.5800  0.7242  0.4052  0.5693
  43. Li 3 (px)   0.0209  0.1915 -0.1198  0.2537  0.1735 -0.6638  0.1005 -0.2570
  44. Li 3 (py)  -0.0396 -0.4135  0.7946 -0.5678 -0.4069  0.1719  0.5057  0.4259
  45. Li 3 (pz)   0.0000  0.0000  0.0000  0.0000  0.0000  0.0000  0.0000  0.0000
  46. Li 3 (S)   -0.0623 -0.2683  9.3851 -2.6903 -0.8431  0.9867 -0.0619  0.9019
  47. Li 3 (px)   0.0167  0.0512 -1.5540  0.5455  0.1481 -0.8222 -0.6794 -0.1966
  48. Li 3 (py)  -0.0314 -0.1437  3.2907 -0.8237 -0.2153 -0.7543 -1.0404  0.3131
  49. Li 3 (pz)   0.0000  0.0000  0.0000  0.0000  0.0000  0.0000  0.0000  0.0000
  50. Li 3 (d5)   0.0000  0.0011  0.0200  0.0230  0.0006  0.0001  0.0080 -0.0016
  51. Li 3 (d2)   0.0000  0.0000  0.0000  0.0000  0.0000  0.0000  0.0000  0.0000
  52. Li 3 (d3)   0.0000  0.0000  0.0000  0.0000  0.0000  0.0000  0.0000  0.0000
  53. Li 3 (d4)   0.0000  0.0005  0.0110  0.0217 -0.0032 -0.0008 -0.0451 -0.0012
  54. Li 3 (d1)   0.0000  0.0012  0.0263  0.0571  0.0028  0.0007  0.0399 -0.0020
  55. Li 4 (S)    0.0022 -0.0067  0.0234  0.0076  0.0000  0.0000  0.0000  0.0108
  56. Li 4 (S)    0.0019  0.0497  0.0082 -0.0259  0.0000  0.0000  0.0000 -0.0058
  57. Li 4 (px)   0.0000  0.0000  0.0000  0.0000 -0.0007 -0.0065 -0.0139  0.0000
  58. Li 4 (py)   0.0000 -0.0054 -0.0649  0.0202  0.0000  0.0000  0.0000 -0.0024
  59. Li 4 (pz)   0.0001 -0.0013 -0.0413 -0.0139  0.0000  0.0000  0.0000  0.0015
  60. Li 4 (S)   -0.0012 -0.2399 -0.2331  0.2708  0.0000  0.0000  0.0000  0.0330
  61. Li 4 (px)   0.0000  0.0000  0.0000  0.0000  0.0106 -0.0835  0.0879  0.0000
  62. Li 4 (py)  -0.0008  0.0224  0.5706 -0.1821  0.0000  0.0000  0.0000  0.0097
  63. Li 4 (pz)   0.0011  0.0094 -0.1106 -0.0015  0.0000  0.0000  0.0000 -0.0027
  64. Li 4 (S)   -0.0029  0.2514  5.1993 -1.0893  0.0000  0.0000  0.0000  0.1123
  65. Li 4 (px)   0.0000  0.0000  0.0000  0.0000  0.0086 -0.5268 -0.2612  0.0000
  66. Li 4 (py)  -0.0037 -0.0375  0.8442 -0.2368  0.0000  0.0000  0.0000  0.0175
  67. Li 4 (pz)   0.0075 -0.0361 -2.1000  0.4644  0.0000  0.0000  0.0000 -0.0610
  68. Li 4 (d5)   0.0000  0.0003  0.0054  0.0090  0.0000  0.0000  0.0000 -0.0022
  69. Li 4 (d2)   0.0000  0.0000  0.0000  0.0000 -0.0018 -0.0005 -0.0260  0.0000
  70. Li 4 (d3)   0.0000 -0.0022 -0.0323  0.0140  0.0000  0.0000  0.0000  0.0009
  71. Li 4 (d4)   0.0000 -0.0016 -0.0244  0.0115  0.0000  0.0000  0.0000 -0.0008
  72. Li 4 (d1)   0.0000  0.0000  0.0000  0.0000  0.0019  0.0005  0.0265  0.0000
  73. Li 5 (S)    0.0022 -0.0067  0.0234  0.0076  0.0000  0.0000  0.0000  0.0108
  74. Li 5 (S)    0.0019  0.0497  0.0082 -0.0259  0.0000  0.0000  0.0000 -0.0058
  75. Li 5 (px)   0.0000  0.0000  0.0000  0.0000 -0.0007 -0.0065 -0.0139  0.0000
  76. Li 5 (py)   0.0000 -0.0054 -0.0649  0.0202  0.0000  0.0000  0.0000 -0.0024
  77. Li 5 (pz)  -0.0001  0.0013  0.0413  0.0139  0.0000  0.0000  0.0000 -0.0015
  78. Li 5 (S)   -0.0012 -0.2399 -0.2331  0.2708  0.0000  0.0000  0.0000  0.0330
  79. Li 5 (px)   0.0000  0.0000  0.0000  0.0000  0.0106 -0.0835  0.0879  0.0000
  80. Li 5 (py)  -0.0008  0.0224  0.5706 -0.1821  0.0000  0.0000  0.0000  0.0097
  81. Li 5 (pz)  -0.0011 -0.0094  0.1106  0.0015  0.0000  0.0000  0.0000  0.0027
  82. Li 5 (S)   -0.0029  0.2514  5.1993 -1.0893  0.0000  0.0000  0.0000  0.1123
  83. Li 5 (px)   0.0000  0.0000  0.0000  0.0000  0.0086 -0.5268 -0.2612  0.0000
  84. Li 5 (py)  -0.0037 -0.0375  0.8442 -0.2368  0.0000  0.0000  0.0000  0.0175
  85. Li 5 (pz)  -0.0075  0.0361  2.1000 -0.4644  0.0000  0.0000  0.0000  0.0610
  86. Li 5 (d5)   0.0000  0.0003  0.0054  0.0090  0.0000  0.0000  0.0000 -0.0022
  87. Li 5 (d2)   0.0000  0.0000  0.0000  0.0000  0.0018  0.0005  0.0260  0.0000
  88. Li 5 (d3)   0.0000  0.0022  0.0323 -0.0140  0.0000  0.0000  0.0000 -0.0009
  89. Li 5 (d4)   0.0000 -0.0016 -0.0244  0.0115  0.0000  0.0000  0.0000 -0.0008
  90. Li 5 (d1)   0.0000  0.0000  0.0000  0.0000  0.0019  0.0005  0.0265  0.0000

          AO         9      10      11      12      13      14      15      16
      ---------- ------- ------- ------- ------- ------- ------- ------- -------
   1. Li 1 (S)    0.0862  0.0987  0.0000  0.0000  0.0000  0.0000  0.0000  0.0000
   2. Li 1 (S)   -0.0514 -0.2013  0.0000  0.0000  0.0000  0.0000  0.0000  0.0000
   3. Li 1 (px)   0.0000  0.0000  0.0000  0.0000  0.0000 -0.0629  0.0000  0.0000
   4. Li 1 (py)  -0.3383  1.2763  0.0000  0.0000  0.0000  0.0000  0.0000  0.0000
   5. Li 1 (pz)   0.0000  0.0000  0.2388 -0.5858  1.2053  0.0000  0.0000  0.0991
   6. Li 1 (S)    0.3673  1.0724  0.0000  0.0000  0.0000  0.0000  0.0000  0.0000
   7. Li 1 (px)   0.0000  0.0000  0.0000  0.0000  0.0000 -1.4931  0.0000  0.0000
   8. Li 1 (py)  -1.3109 -2.3486  0.0000  0.0000  0.0000  0.0000  0.0000  0.0000
   9. Li 1 (pz)   0.0000  0.0000  0.9499  0.0460 -2.3043  0.0000  0.0000 -0.9944
  10. Li 1 (S)    0.4300 -2.5095  0.0000  0.0000  0.0000  0.0000  0.0000  0.0000
  11. Li 1 (px)   0.0000  0.0000  0.0000  0.0000  0.0000  0.3959  0.0000  0.0000
  12. Li 1 (py)   1.9739  2.1177  0.0000  0.0000  0.0000  0.0000  0.0000  0.0000
  13. Li 1 (pz)   0.0000  0.0000  0.0658  5.2880  5.4676  0.0000  0.0000 -0.3226
  14. Li 1 (d5)  -0.0005 -0.0277  0.0000  0.0000  0.0000  0.0000  0.0000  0.0000
  15. Li 1 (d2)   0.0000  0.0000  0.0000  0.0000  0.0000  0.0000  1.0683  0.0000
  16. Li 1 (d3)   0.0000  0.0000  0.0076  0.0020  0.1083  0.0000  0.0000  1.2668
  17. Li 1 (d4)  -0.0009 -0.0457  0.0000  0.0000  0.0000  0.0000  0.0000  0.0000
  18. Li 1 (d1)   0.0000  0.0000  0.0000  0.0000  0.0000  1.4573  0.0000  0.0000
  19. Li 2 (S)    0.0030 -0.0368  0.0000  0.0000  0.0000 -0.1481  0.0000  0.0000
  20. Li 2 (S)    0.0202 -0.0001  0.0000  0.0000  0.0000  0.2815  0.0000  0.0000
  21. Li 2 (px)  -0.0149 -0.0315  0.0000  0.0000  0.0000 -0.0843  0.0000  0.0000
  22. Li 2 (py)  -0.0352 -0.0654  0.0000  0.0000  0.0000 -0.1555  0.0000  0.0000
  23. Li 2 (pz)   0.0000  0.0000  0.0033 -0.0269 -0.0129  0.0000 -0.0007  0.0054
  24. Li 2 (S)   -0.0674 -0.5540  0.0000  0.0000  0.0000 -1.7045  0.0000  0.0000
  25. Li 2 (px)  -0.2591 -0.1781  0.0000  0.0000  0.0000 -1.0309  0.0000  0.0000
  26. Li 2 (py)  -0.3446 -0.3077  0.0000  0.0000  0.0000 -1.1535  0.0000  0.0000
  27. Li 2 (pz)   0.0000  0.0000 -0.1454  0.1599  0.4511  0.0000  0.2414  0.1856
  28. Li 2 (S)   -0.0622  0.9122  0.0000  0.0000  0.0000 -2.2355  0.0000  0.0000
  29. Li 2 (px)  -0.1000  0.1644  0.0000  0.0000  0.0000 -0.6283  0.0000  0.0000
  30. Li 2 (py)  -0.0029  0.3936  0.0000  0.0000  0.0000  0.3279  0.0000  0.0000
  31. Li 2 (pz)   0.0000  0.0000 -0.1589  0.3643  0.4468  0.0000 -0.2653 -0.5131
  32. Li 2 (d5)  -0.0004 -0.0228  0.0000  0.0000  0.0000  0.1668  0.0000  0.0000
  33. Li 2 (d2)   0.0000  0.0000  0.0017  0.0004  0.0239  0.0000  0.0515  0.0629
  34. Li 2 (d3)   0.0000  0.0000  0.0041  0.0011  0.0576  0.0000  0.0887  0.1391
  35. Li 2 (d4)  -0.0003 -0.0164  0.0000  0.0000  0.0000  0.1706  0.0000  0.0000
  36. Li 2 (d1)   0.0005  0.0287  0.0000  0.0000  0.0000 -0.2078  0.0000  0.0000
  37. Li 3 (S)    0.0030 -0.0368  0.0000  0.0000  0.0000  0.1481  0.0000  0.0000
  38. Li 3 (S)    0.0202 -0.0001  0.0000  0.0000  0.0000 -0.2815  0.0000  0.0000
  39. Li 3 (px)   0.0149  0.0315  0.0000  0.0000  0.0000 -0.0843  0.0000  0.0000
  40. Li 3 (py)  -0.0352 -0.0654  0.0000  0.0000  0.0000  0.1555  0.0000  0.0000
  41. Li 3 (pz)   0.0000  0.0000  0.0033 -0.0269 -0.0129  0.0000  0.0007  0.0054
  42. Li 3 (S)   -0.0674 -0.5540  0.0000  0.0000  0.0000  1.7045  0.0000  0.0000
  43. Li 3 (px)   0.2591  0.1781  0.0000  0.0000  0.0000 -1.0309  0.0000  0.0000
  44. Li 3 (py)  -0.3446 -0.3077  0.0000  0.0000  0.0000  1.1535  0.0000  0.0000
  45. Li 3 (pz)   0.0000  0.0000 -0.1454  0.1599  0.4511  0.0000 -0.2414  0.1856
  46. Li 3 (S)   -0.0622  0.9122  0.0000  0.0000  0.0000  2.2355  0.0000  0.0000
  47. Li 3 (px)   0.1000 -0.1644  0.0000  0.0000  0.0000 -0.6283  0.0000  0.0000
  48. Li 3 (py)  -0.0029  0.3936  0.0000  0.0000  0.0000 -0.3279  0.0000  0.0000
  49. Li 3 (pz)   0.0000  0.0000 -0.1589  0.3643  0.4468  0.0000  0.2653 -0.5131
  50. Li 3 (d5)  -0.0004 -0.0228  0.0000  0.0000  0.0000 -0.1668  0.0000  0.0000
  51. Li 3 (d2)   0.0000  0.0000 -0.0017 -0.0004 -0.0239  0.0000  0.0515 -0.0629
  52. Li 3 (d3)   0.0000  0.0000  0.0041  0.0011  0.0576  0.0000 -0.0887  0.1391
  53. Li 3 (d4)  -0.0003 -0.0164  0.0000  0.0000  0.0000 -0.1706  0.0000  0.0000
  54. Li 3 (d1)  -0.0005 -0.0287  0.0000  0.0000  0.0000 -0.2078  0.0000  0.0000
  55. Li 4 (S)    0.0328 -0.0030 -0.0167 -0.1018  0.0022  0.0000  0.0000  0.0423
  56. Li 4 (S)   -0.0552 -0.0059  0.0652  0.0887 -0.0444  0.0000  0.0000 -0.0920
  57. Li 4 (px)   0.0000  0.0000  0.0000  0.0000  0.0000 -0.0190  0.0317  0.0000
  58. Li 4 (py)  -0.0058 -0.0402 -0.0010 -0.0148 -0.0124  0.0000  0.0000  0.0252
  59. Li 4 (pz)   0.0005  0.0293 -0.0073  0.0172 -0.0585  0.0000  0.0000 -0.0001
  60. Li 4 (S)    0.3603 -0.1452 -0.4880  0.3850  1.0336  0.0000  0.0000  0.2855
  61. Li 4 (px)   0.0000  0.0000  0.0000  0.0000  0.0000 -0.0945 -0.0609  0.0000
  62. Li 4 (py)  -0.0685  0.0628  0.0208 -0.1942  0.3086  0.0000  0.0000  0.2515
  63. Li 4 (pz)   0.0003  0.0634 -0.0356  0.2525  0.1182  0.0000  0.0000 -0.3681
  64. Li 4 (S)   -0.1000  0.5524  0.6640 -5.7219 -6.1794  0.0000  0.0000  1.3326
  65. Li 4 (px)   0.0000  0.0000  0.0000  0.0000  0.0000 -0.1981 -0.0944  0.0000
  66. Li 4 (py)  -0.4310 -0.2130 -0.0941 -1.2495 -1.2450  0.0000  0.0000 -0.0356
  67. Li 4 (pz)  -0.0101 -0.2428 -0.1476  1.5674  1.7238  0.0000  0.0000 -0.3595
  68. Li 4 (d5)  -0.0006 -0.0305 -0.0018 -0.0005 -0.0253  0.0000  0.0000  0.1117
  69. Li 4 (d2)   0.0000  0.0000  0.0000  0.0000  0.0000  0.0095  0.0284  0.0000
  70. Li 4 (d3)   0.0002  0.0122 -0.0058 -0.0015 -0.0815  0.0000  0.0000 -0.1516
  71. Li 4 (d4)  -0.0002 -0.0111 -0.0019 -0.0005 -0.0271  0.0000  0.0000 -0.0415
  72. Li 4 (d1)   0.0000  0.0000  0.0000  0.0000  0.0000  0.0334 -0.0539  0.0000
  73. Li 5 (S)    0.0328 -0.0030  0.0167  0.1018 -0.0022  0.0000  0.0000 -0.0423
  74. Li 5 (S)   -0.0552 -0.0059 -0.0652 -0.0887  0.0444  0.0000  0.0000  0.0920
  75. Li 5 (px)   0.0000  0.0000  0.0000  0.0000  0.0000 -0.0190 -0.0317  0.0000
  76. Li 5 (py)  -0.0058 -0.0402  0.0010  0.0148  0.0124  0.0000  0.0000 -0.0252
  77. Li 5 (pz)  -0.0005 -0.0293 -0.0073  0.0172 -0.0585  0.0000  0.0000 -0.0001
  78. Li 5 (S)    0.3603 -0.1452  0.4880 -0.3850 -1.0336  0.0000  0.0000 -0.2855
  79. Li 5 (px)   0.0000  0.0000  0.0000  0.0000  0.0000 -0.0945  0.0609  0.0000
  80. Li 5 (py)  -0.0685  0.0628 -0.0208  0.1942 -0.3086  0.0000  0.0000 -0.2515
  81. Li 5 (pz)  -0.0003 -0.0634 -0.0356  0.2525  0.1182  0.0000  0.0000 -0.3681
  82. Li 5 (S)   -0.1000  0.5524 -0.6640  5.7219  6.1794  0.0000  0.0000 -1.3326
  83. Li 5 (px)   0.0000  0.0000  0.0000  0.0000  0.0000 -0.1981  0.0944  0.0000
  84. Li 5 (py)  -0.4310 -0.2130  0.0941  1.2495  1.2450  0.0000  0.0000  0.0356
  85. Li 5 (pz)   0.0101  0.2428 -0.1476  1.5674  1.7238  0.0000  0.0000 -0.3595
  86. Li 5 (d5)  -0.0006 -0.0305  0.0018  0.0005  0.0253  0.0000  0.0000 -0.1117
  87. Li 5 (d2)   0.0000  0.0000  0.0000  0.0000  0.0000 -0.0095  0.0284  0.0000
  88. Li 5 (d3)  -0.0002 -0.0122 -0.0058 -0.0015 -0.0815  0.0000  0.0000 -0.1516
  89. Li 5 (d4)  -0.0002 -0.0111  0.0019  0.0005  0.0271  0.0000  0.0000  0.0415
  90. Li 5 (d1)   0.0000  0.0000  0.0000  0.0000  0.0000  0.0334  0.0539  0.0000

          AO        17      18      19      20      21      22      23      24
      ---------- ------- ------- ------- ------- ------- ------- ------- -------
   1. Li 1 (S)   -0.1193 -0.0950 -0.0008 -0.0678  0.0465 -0.0218 -0.0445 -0.0493
   2. Li 1 (S)    0.2612  0.1773  0.0124  0.1438 -0.0469  0.0558  0.0376  0.0606
   3. Li 1 (px)   0.0000  0.0000  0.0003  0.0088  0.0737 -0.0265 -0.0077  0.0326
   4. Li 1 (py)   0.0175  0.0611  0.0005  0.0069  0.0177 -0.0616  0.0016 -0.0121
   5. Li 1 (pz)   0.0000  0.0000  0.0000  0.0000  0.0000  0.0000  0.0000  0.0000
   6. Li 1 (S)   -1.3064 -1.2168 -0.0420 -0.6106  0.4434 -0.1496 -0.2030 -0.3038
   7. Li 1 (px)   0.0000  0.0000  0.0238  0.2624 -0.6283  0.3649  0.0753 -0.2378
   8. Li 1 (py)   1.6949  1.3510  0.0379  0.3726 -0.5010  0.5036  0.2003 -0.0131
   9. Li 1 (pz)   0.0000  0.0000  0.0000  0.0000  0.0000  0.0000  0.0000  0.0000
  10. Li 1 (S)   -2.9669 -1.5776 -0.0623 -0.2683  9.3851 -2.6903 -0.3595 -0.4395
  11. Li 1 (px)   0.0000  0.0000  0.0189  0.0989 -2.0729  0.4405  0.0935 -0.4910
  12. Li 1 (py)   0.7511  0.3140  0.0301  0.1163 -2.9911  0.8843  0.1651  0.0912
  13. Li 1 (pz)   0.0000  0.0000  0.0000  0.0000  0.0000  0.0000  0.0000  0.0000
  14. Li 1 (d5)   0.1225  1.3077  0.0000  0.0011  0.0200  0.0230  0.0011  0.0003
  15. Li 1 (d2)   0.0000  0.0000  0.0000  0.0000  0.0000  0.0000  0.0000  0.0000
  16. Li 1 (d3)   0.0000  0.0000  0.0000  0.0000  0.0000  0.0000  0.0000  0.0000
  17. Li 1 (d4)   1.2664  0.1225  0.0000  0.0008  0.0173  0.0386 -0.0010 -0.0003
  18. Li 1 (d1)   0.0000  0.0000  0.0000 -0.0010 -0.0227 -0.0474 -0.0024 -0.0006
  19. Li 2 (S)    0.0752  0.0893  0.6281  0.1151 -0.2069 -1.5899  0.1119 -0.0746
  20. Li 2 (S)   -0.1295 -0.1740  0.4177 -0.4832  0.0808  1.6886 -0.2315  0.0445
  21. Li 2 (px)   0.0392  0.0481  0.0004  0.0258  0.2671 -0.0194  0.1934 -0.3542
  22. Li 2 (py)   0.1390  0.1132  0.0002  0.0149  0.1542 -0.0112 -0.0035  0.0277
  23. Li 2 (pz)   0.0000  0.0000  0.0000  0.0000  0.0000  0.0000  0.0000  0.0000
  24. Li 2 (S)    0.9584  1.0083  0.0819  1.9740  2.7283 -0.0091  0.9952 -0.3181
  25. Li 2 (px)   0.5495  0.4192  0.0425  0.5867 -1.3942  0.7326  1.4661 -1.2422
  26. Li 2 (py)   0.6514  0.8865  0.0246  0.3387 -0.8049  0.4230  0.1491 -0.1191
  27. Li 2 (pz)   0.0000  0.0000  0.0000  0.0000  0.0000  0.0000  0.0000  0.0000
  28. Li 2 (S)    1.2381  1.2542  0.0976  0.4821-30.8533  7.4504  1.6165 -0.3724
  29. Li 2 (px)  -0.0292  0.1623  0.0356 -0.0106 -8.1853  1.7940  0.7046  2.1675
  30. Li 2 (py)   0.1365  0.0571  0.0206 -0.0061 -4.7258  1.0358  0.1634 -0.3354
  31. Li 2 (pz)   0.0000  0.0000  0.0000  0.0000  0.0000  0.0000  0.0000  0.0000
  32. Li 2 (d5)  -0.0819 -0.0884  0.0000 -0.0009 -0.0205 -0.0446  0.0017  0.0004
  33. Li 2 (d2)   0.0000  0.0000  0.0000  0.0000  0.0000  0.0000  0.0000  0.0000
  34. Li 2 (d3)   0.0000  0.0000  0.0000  0.0000  0.0000  0.0000  0.0000  0.0000
  35. Li 2 (d4)   0.0164 -0.1035  0.0000 -0.0040 -0.0598  0.0267 -0.0042 -0.0011
  36. Li 2 (d1)   0.2178  0.1543  0.0001 -0.0069 -0.1036  0.0462 -0.0008 -0.0002
  37. Li 3 (S)    0.0752  0.0893 -0.0008 -0.0678  0.0465 -0.0218 -0.1239  0.0440
  38. Li 3 (S)   -0.1295 -0.1740  0.0124  0.1438 -0.0469  0.0558  0.1654 -0.0956
  39. Li 3 (px)  -0.0392 -0.0481  0.0005  0.0104  0.0521 -0.0666  0.0176 -0.0716
  40. Li 3 (py)   0.1390  0.1132  0.0000  0.0042  0.0550  0.0078  0.0087 -0.0424
  41. Li 3 (pz)   0.0000  0.0000  0.0000  0.0000  0.0000  0.0000  0.0000  0.0000
  42. Li 3 (S)    0.9584  1.0083 -0.0420 -0.6106  0.4434 -0.1496 -0.7830  0.4205
  43. Li 3 (px)  -0.5495 -0.4192  0.0448  0.4539 -0.7480  0.6185  0.6503 -0.6110
  44. Li 3 (py)   0.6514  0.8865  0.0017  0.0410 -0.2936  0.0642  0.0182  0.2896
  45. Li 3 (pz)   0.0000  0.0000  0.0000  0.0000  0.0000  0.0000  0.0000  0.0000
  46. Li 3 (S)    1.2381  1.2542 -0.0623 -0.2683  9.3851 -2.6903 -1.2026  0.5472
  47. Li 3 (px)   0.0292 -0.1623  0.0355  0.1501 -3.6268  0.9861  0.4502  0.0756
  48. Li 3 (py)   0.1365  0.0571  0.0013  0.0275 -0.2996 -0.0606 -0.0221  0.6183
  49. Li 3 (pz)   0.0000  0.0000  0.0000  0.0000  0.0000  0.0000  0.0000  0.0000
  50. Li 3 (d5)  -0.0819 -0.0884  0.0000  0.0011  0.0200  0.0230  0.0017  0.0004
  51. Li 3 (d2)   0.0000  0.0000  0.0000  0.0000  0.0000  0.0000  0.0000  0.0000
  52. Li 3 (d3)   0.0000  0.0000  0.0000  0.0000  0.0000  0.0000  0.0000  0.0000
  53. Li 3 (d4)   0.0164 -0.1035  0.0000 -0.0013 -0.0283 -0.0604 -0.0024 -0.0006
  54. Li 3 (d1)  -0.2178 -0.1543  0.0000  0.0001  0.0037  0.0098  0.0021  0.0006
  55. Li 4 (S)    0.0161 -0.0368  0.0022 -0.0067  0.0234  0.0076 -0.0094 -0.0284
  56. Li 4 (S)   -0.0356  0.1003  0.0019  0.0497  0.0082 -0.0259  0.0050  0.0478
  57. Li 4 (px)   0.0000  0.0000  0.0000  0.0046  0.0562 -0.0175 -0.0020 -0.0060
  58. Li 4 (py)   0.0250  0.0379  0.0000  0.0027  0.0324 -0.0101 -0.0008  0.0003
  59. Li 4 (pz)  -0.0052 -0.0057  0.0001 -0.0013 -0.0413 -0.0139 -0.0013 -0.0004
  60. Li 4 (S)    0.2615 -0.3149 -0.0012 -0.2399 -0.2331  0.2708 -0.0286 -0.3121
  61. Li 4 (px)   0.0000  0.0000  0.0007 -0.0194 -0.4941  0.1577  0.0100 -0.0722
  62. Li 4 (py)   0.1493 -0.1209  0.0004 -0.0112 -0.2853  0.0910 -0.0004  0.0065
  63. Li 4 (pz)  -0.0827  0.3299  0.0011  0.0094 -0.1106 -0.0015  0.0023 -0.0002
  64. Li 4 (S)    0.0056 -0.4842 -0.0029  0.2514  5.1993 -1.0893 -0.0973  0.0866
  65. Li 4 (px)   0.0000  0.0000  0.0032  0.0325 -0.7311  0.2051  0.0153 -0.4549
  66. Li 4 (py)   0.1738  0.2112  0.0019  0.0187 -0.4221  0.1184  0.0039  0.0415
  67. Li 4 (pz)   0.0430  0.1886  0.0075 -0.0361 -2.1000  0.4644  0.0528  0.0087
  68. Li 4 (d5)   0.0371 -0.0693  0.0000  0.0003  0.0054  0.0090  0.0019  0.0005
  69. Li 4 (d2)   0.0000  0.0000  0.0000  0.0019  0.0280 -0.0121  0.0002  0.0001
  70. Li 4 (d3)  -0.0642  0.0979  0.0000  0.0011  0.0162 -0.0070  0.0012  0.0003
  71. Li 4 (d4)  -0.0006  0.0405  0.0000  0.0008  0.0122 -0.0058 -0.0012 -0.0003
  72. Li 4 (d1)   0.0000  0.0000  0.0000  0.0014  0.0211 -0.0100 -0.0001  0.0000
  73. Li 5 (S)    0.0161 -0.0368  0.0022 -0.0067  0.0234  0.0076 -0.0094 -0.0284
  74. Li 5 (S)   -0.0356  0.1003  0.0019  0.0497  0.0082 -0.0259  0.0050  0.0478
  75. Li 5 (px)   0.0000  0.0000  0.0000  0.0046  0.0562 -0.0175 -0.0020 -0.0060
  76. Li 5 (py)   0.0250  0.0379  0.0000  0.0027  0.0324 -0.0101 -0.0008  0.0003
  77. Li 5 (pz)   0.0052  0.0057 -0.0001  0.0013  0.0413  0.0139  0.0013  0.0004
  78. Li 5 (S)    0.2615 -0.3149 -0.0012 -0.2399 -0.2331  0.2708 -0.0286 -0.3121
  79. Li 5 (px)   0.0000  0.0000  0.0007 -0.0194 -0.4941  0.1577  0.0100 -0.0722
  80. Li 5 (py)   0.1493 -0.1209  0.0004 -0.0112 -0.2853  0.0910 -0.0004  0.0065
  81. Li 5 (pz)   0.0827 -0.3299 -0.0011 -0.0094  0.1106  0.0015 -0.0023  0.0002
  82. Li 5 (S)    0.0056 -0.4842 -0.0029  0.2514  5.1993 -1.0893 -0.0973  0.0866
  83. Li 5 (px)   0.0000  0.0000  0.0032  0.0325 -0.7311  0.2051  0.0153 -0.4549
  84. Li 5 (py)   0.1738  0.2112  0.0019  0.0187 -0.4221  0.1184  0.0039  0.0415
  85. Li 5 (pz)  -0.0430 -0.1886 -0.0075  0.0361  2.1000 -0.4644 -0.0528 -0.0087
  86. Li 5 (d5)   0.0371 -0.0693  0.0000  0.0003  0.0054  0.0090  0.0019  0.0005
  87. Li 5 (d2)   0.0000  0.0000  0.0000 -0.0019 -0.0280  0.0121 -0.0002 -0.0001
  88. Li 5 (d3)   0.0642 -0.0979  0.0000 -0.0011 -0.0162  0.0070 -0.0012 -0.0003
  89. Li 5 (d4)  -0.0006  0.0405  0.0000  0.0008  0.0122 -0.0058 -0.0012 -0.0003
  90. Li 5 (d1)   0.0000  0.0000  0.0000  0.0014  0.0211 -0.0100 -0.0001  0.0000

          AO        25      26      27      28      29      30      31      32
      ---------- ------- ------- ------- ------- ------- ------- ------- -------
   1. Li 1 (S)    0.0148 -0.1173  0.0793  0.0480  0.0000  0.0000  0.0000 -0.1392
   2. Li 1 (S)    0.0156  0.1693 -0.1453 -0.0269  0.0000  0.0000  0.0000  0.2529
   3. Li 1 (px)  -0.0062  0.0234 -0.1025 -0.0711  0.0000  0.0000  0.0000  0.1335
   4. Li 1 (py)  -0.0516  0.0117 -0.0401 -0.0306  0.0000  0.0000  0.0000  0.1650
   5. Li 1 (pz)   0.0000  0.0000  0.0000  0.0000  0.0033 -0.0269 -0.0129  0.0000
   6. Li 1 (S)    0.2771 -0.7869  0.6609  0.6279  0.0000  0.0000  0.0000 -1.6822
   7. Li 1 (px)   0.0904  0.3502  0.0741 -0.5115  0.0000  0.0000  0.0000  0.4923
   8. Li 1 (py)  -0.1839  0.5241 -0.7706 -0.2977  0.0000  0.0000  0.0000  1.4290
   9. Li 1 (pz)   0.0000  0.0000  0.0000  0.0000 -0.1454  0.1599  0.4511  0.0000
  10. Li 1 (S)   -0.7591 -1.1811  0.8856 -0.5098  0.0000  0.0000  0.0000 -2.1900
  11. Li 1 (px)  -0.3963  0.1838  0.9455  1.2038  0.0000  0.0000  0.0000 -0.1840
  12. Li 1 (py)   0.3278  0.3677 -0.3340  0.1106  0.0000  0.0000  0.0000  0.2273
  13. Li 1 (pz)   0.0000  0.0000  0.0000  0.0000 -0.1589  0.3643  0.4468  0.0000
  14. Li 1 (d5)   0.0157  0.0013  0.0003  0.0184  0.0000  0.0000  0.0000  0.1543
  15. Li 1 (d2)   0.0000  0.0000  0.0000  0.0000 -0.0027 -0.0007 -0.0379  0.0000
  16. Li 1 (d3)   0.0000  0.0000  0.0000  0.0000 -0.0035 -0.0009 -0.0495  0.0000
  17. Li 1 (d4)  -0.0141  0.0041  0.0011  0.0578  0.0000  0.0000  0.0000  0.2178
  18. Li 1 (d1)  -0.0343  0.0002  0.0000  0.0023  0.0000  0.0000  0.0000 -0.2078
  19. Li 2 (S)   -0.0855  0.0646 -0.0431 -0.0493  0.0000  0.0000  0.0000  0.1033
  20. Li 2 (S)    0.1744 -0.1337  0.0257  0.1007  0.0000  0.0000  0.0000 -0.2262
  21. Li 2 (px)   1.2672 -0.0035  0.0277  0.0158  0.0000  0.0000  0.0000 -0.0026
  22. Li 2 (py)   0.0158  0.1974 -0.3862  1.2490  0.0000  0.0000  0.0000  0.0348
  23. Li 2 (pz)   0.0000  0.0000  0.0000  0.0000  0.2388 -0.5858  1.2053  0.0000
  24. Li 2 (S)   -0.9287  0.5746 -0.1837 -0.5362  0.0000  0.0000  0.0000  1.1314
  25. Li 2 (px)  -2.3148  0.1491 -0.1191 -0.0587  0.0000  0.0000  0.0000  0.8979
  26. Li 2 (py)  -0.0587  1.2939 -1.1047 -2.2470  0.0000  0.0000  0.0000  1.3804
  27. Li 2 (pz)   0.0000  0.0000  0.0000  0.0000  0.9499  0.0460 -2.3043  0.0000
  28. Li 2 (S)    2.1733  0.9333 -0.2150  1.2548  0.0000  0.0000  0.0000  2.5694
  29. Li 2 (px)   2.1938  0.1634 -0.3354 -0.1318  0.0000  0.0000  0.0000  0.6623
  30. Li 2 (py)  -0.1318  0.5159  2.5548  2.3460  0.0000  0.0000  0.0000  0.1538
  31. Li 2 (pz)   0.0000  0.0000  0.0000  0.0000  0.0658  5.2880  5.4676  0.0000
  32. Li 2 (d5)   0.0240  0.0010  0.0003  0.0138  0.0000  0.0000  0.0000 -0.1060
  33. Li 2 (d2)   0.0000  0.0000  0.0000  0.0000 -0.0066 -0.0017 -0.0938  0.0000
  34. Li 2 (d3)   0.0000  0.0000  0.0000  0.0000 -0.0038 -0.0010 -0.0541  0.0000
  35. Li 2 (d4)  -0.0596  0.0041  0.0011  0.0576  0.0000  0.0000  0.0000 -0.0827
  36. Li 2 (d1)  -0.0113 -0.0042 -0.0011 -0.0596  0.0000  0.0000  0.0000  1.3142
  37. Li 3 (S)    0.0490  0.0201 -0.0823 -0.0112  0.0000  0.0000  0.0000  0.0090
  38. Li 3 (S)   -0.0155 -0.0521  0.1252  0.0270  0.0000  0.0000  0.0000 -0.0286
  39. Li 3 (px)  -0.0776 -0.0130  0.0480 -0.0103  0.0000  0.0000  0.0000  0.0328
  40. Li 3 (py)  -0.0298 -0.0137  0.0641  0.0408  0.0000  0.0000  0.0000  0.0285
  41. Li 3 (pz)   0.0000  0.0000  0.0000  0.0000  0.0033 -0.0269 -0.0129  0.0000
  42. Li 3 (S)    0.6823  0.2176 -0.5935 -0.0739  0.0000  0.0000  0.0000  0.0223
  43. Li 3 (px)  -0.5018 -0.1316  0.2024  0.1580  0.0000  0.0000  0.0000 -0.0307
  44. Li 3 (py)  -0.1696 -0.0509 -0.3974  0.2946  0.0000  0.0000  0.0000  0.0280
  45. Li 3 (pz)   0.0000  0.0000  0.0000  0.0000 -0.1454  0.1599  0.4511  0.0000
  46. Li 3 (S)   -0.8210  0.2792 -0.8235 -0.4025  0.0000  0.0000  0.0000  0.0456
  47. Li 3 (px)   0.6471 -0.0409 -0.2359 -0.2746  0.0000  0.0000  0.0000  0.0747
  48. Li 3 (py)   0.6014  0.0110 -0.9007 -0.9328  0.0000  0.0000  0.0000  0.4350
  49. Li 3 (pz)   0.0000  0.0000  0.0000  0.0000 -0.1589  0.3643  0.4468  0.0000
  50. Li 3 (d5)   0.0238  0.0003  0.0001  0.0044  0.0000  0.0000  0.0000 -0.0124
  51. Li 3 (d2)   0.0000  0.0000  0.0000  0.0000 -0.0044 -0.0012 -0.0618  0.0000
  52. Li 3 (d3)   0.0000  0.0000  0.0000  0.0000 -0.0006 -0.0002 -0.0081  0.0000
  53. Li 3 (d4)  -0.0346 -0.0004 -0.0001 -0.0062  0.0000  0.0000  0.0000 -0.0236
  54. Li 3 (d1)   0.0296 -0.0036 -0.0010 -0.0511  0.0000  0.0000  0.0000  0.1285
  55. Li 4 (S)    0.0026 -0.0054 -0.0164  0.0015 -0.0167 -0.1018  0.0022 -0.0139
  56. Li 4 (S)    0.0051  0.0029  0.0276  0.0029  0.0652  0.0887 -0.0444  0.0308
  57. Li 4 (px)  -0.0336 -0.0008  0.0003 -0.0114  0.0008  0.0128  0.0108  0.0140
  58. Li 4 (py)  -0.0114 -0.0011 -0.0063 -0.0205  0.0005  0.0074  0.0062  0.0190
  59. Li 4 (pz)  -0.0254 -0.0008 -0.0002 -0.0147 -0.0073  0.0172 -0.0585  0.0045
  60. Li 4 (S)    0.1257 -0.0165 -0.1802  0.0726 -0.4880  0.3850  1.0336 -0.2264
  61. Li 4 (px)   0.0691 -0.0004  0.0065 -0.0109 -0.0180  0.1682 -0.2673  0.0883
  62. Li 4 (py)  -0.0109  0.0104 -0.0797  0.0816 -0.0104  0.0971 -0.1543  0.1056
  63. Li 4 (pz)  -0.0549  0.0013 -0.0001 -0.0317 -0.0356  0.2525  0.1182  0.0716
  64. Li 4 (S)   -0.4784 -0.0562  0.0500 -0.2762  0.6640 -5.7219 -6.1794 -0.0049
  65. Li 4 (px)  -0.2250  0.0039  0.0415  0.0209  0.0815  1.0821  1.0782  0.0808
  66. Li 4 (py)   0.0209  0.0108 -0.5028 -0.2491  0.0471  0.6248  0.6225  0.1610
  67. Li 4 (pz)   0.2103  0.0305  0.0050  0.1214 -0.1476  1.5674  1.7238 -0.0373
  68. Li 4 (d5)   0.0264  0.0011  0.0003  0.0152 -0.0018 -0.0005 -0.0253 -0.0321
  69. Li 4 (d2)   0.0027  0.0012  0.0003  0.0165  0.0050  0.0013  0.0706 -0.0458
  70. Li 4 (d3)   0.0165 -0.0012 -0.0003 -0.0164  0.0029  0.0008  0.0408 -0.0319
  71. Li 4 (d4)  -0.0163  0.0012  0.0003  0.0171  0.0010  0.0003  0.0136 -0.0147
  72. Li 4 (d1)  -0.0017 -0.0012 -0.0003 -0.0163  0.0017  0.0004  0.0235  0.0079
  73. Li 5 (S)    0.0026 -0.0054 -0.0164  0.0015  0.0167  0.1018 -0.0022 -0.0139
  74. Li 5 (S)    0.0051  0.0029  0.0276  0.0029 -0.0652 -0.0887  0.0444  0.0308
  75. Li 5 (px)  -0.0336 -0.0008  0.0003 -0.0114 -0.0008 -0.0128 -0.0108  0.0140
  76. Li 5 (py)  -0.0114 -0.0011 -0.0063 -0.0205 -0.0005 -0.0074 -0.0062  0.0190
  77. Li 5 (pz)   0.0254  0.0008  0.0002  0.0147 -0.0073  0.0172 -0.0585 -0.0045
  78. Li 5 (S)    0.1257 -0.0165 -0.1802  0.0726  0.4880 -0.3850 -1.0336 -0.2264
  79. Li 5 (px)   0.0691 -0.0004  0.0065 -0.0109  0.0180 -0.1682  0.2673  0.0883
  80. Li 5 (py)  -0.0109  0.0104 -0.0797  0.0816  0.0104 -0.0971  0.1543  0.1056
  81. Li 5 (pz)   0.0549 -0.0013  0.0001  0.0317 -0.0356  0.2525  0.1182 -0.0716
  82. Li 5 (S)   -0.4784 -0.0562  0.0500 -0.2762 -0.6640  5.7219  6.1794 -0.0049
  83. Li 5 (px)  -0.2250  0.0039  0.0415  0.0209 -0.0815 -1.0821 -1.0782  0.0808
  84. Li 5 (py)   0.0209  0.0108 -0.5028 -0.2491 -0.0471 -0.6248 -0.6225  0.1610
  85. Li 5 (pz)  -0.2103 -0.0305 -0.0050 -0.1214 -0.1476  1.5674  1.7238  0.0373
  86. Li 5 (d5)   0.0264  0.0011  0.0003  0.0152  0.0018  0.0005  0.0253 -0.0321
  87. Li 5 (d2)  -0.0027 -0.0012 -0.0003 -0.0165  0.0050  0.0013  0.0706  0.0458
  88. Li 5 (d3)  -0.0165  0.0012  0.0003  0.0164  0.0029  0.0008  0.0408  0.0319
  89. Li 5 (d4)  -0.0163  0.0012  0.0003  0.0171 -0.0010 -0.0003 -0.0136 -0.0147
  90. Li 5 (d1)  -0.0017 -0.0012 -0.0003 -0.0163 -0.0017 -0.0004 -0.0235  0.0079

          AO        33      34      35      36      37      38      39      40
      ---------- ------- ------- ------- ------- ------- ------- ------- -------
   1. Li 1 (S)    0.0000  0.0000  0.0907  0.0893 -0.0008 -0.0678  0.0465 -0.0218
   2. Li 1 (S)    0.0000  0.0000 -0.1790 -0.1740  0.0124  0.1438 -0.0469  0.0558
   3. Li 1 (px)   0.0000  0.0000 -0.0297 -0.0740 -0.0003 -0.0088 -0.0737  0.0265
   4. Li 1 (py)   0.0000  0.0000 -0.0789 -0.0982  0.0005  0.0069  0.0177 -0.0616
   5. Li 1 (pz)  -0.0050 -0.0021  0.0000  0.0000  0.0000  0.0000  0.0000  0.0000
   6. Li 1 (S)    0.0000  0.0000  0.9970  1.0083 -0.0420 -0.6106  0.4434 -0.1496
   7. Li 1 (px)   0.0000  0.0000 -0.2740 -0.5582 -0.0238 -0.2624  0.6283 -0.3649
   8. Li 1 (py)   0.0000  0.0000 -0.8718 -0.8063  0.0379  0.3726 -0.5010  0.5036
   9. Li 1 (pz)  -0.0400 -0.3019  0.0000  0.0000  0.0000  0.0000  0.0000  0.0000
  10. Li 1 (S)    0.0000  0.0000  1.3170  1.2542 -0.0623 -0.2683  9.3851 -2.6903
  11. Li 1 (px)   0.0000  0.0000  0.5844  0.0317 -0.0189 -0.0989  2.0729 -0.4405
  12. Li 1 (py)   0.0000  0.0000 -0.3077 -0.1691  0.0301  0.1163 -2.9911  0.8843
  13. Li 1 (pz)   0.3117  0.4863  0.0000  0.0000  0.0000  0.0000  0.0000  0.0000
  14. Li 1 (d5)   0.0000  0.0000 -0.1035 -0.0884  0.0000  0.0011  0.0200  0.0230
  15. Li 1 (d2)   0.0515  0.0887  0.0000  0.0000  0.0000  0.0000  0.0000  0.0000
  16. Li 1 (d3)   0.0629  0.1391  0.0000  0.0000  0.0000  0.0000  0.0000  0.0000
  17. Li 1 (d4)   0.0000  0.0000  0.0164 -0.0819  0.0000  0.0008  0.0173  0.0386
  18. Li 1 (d1)   0.0000  0.0000  0.1706  0.1668  0.0000  0.0010  0.0227  0.0474
  19. Li 2 (S)    0.0000  0.0000  0.0596 -0.0950 -0.0008 -0.0678  0.0465 -0.0218
  20. Li 2 (S)    0.0000  0.0000 -0.1306  0.1773  0.0124  0.1438 -0.0469  0.0558
  21. Li 2 (px)   0.0000  0.0000  0.0348 -0.0529 -0.0005 -0.0104 -0.0521  0.0666
  22. Li 2 (py)   0.0000  0.0000 -0.0428 -0.0305  0.0000  0.0042  0.0550  0.0078
  23. Li 2 (pz)  -0.0858 -0.0496  0.0000  0.0000  0.0000  0.0000  0.0000  0.0000
  24. Li 2 (S)    0.0000  0.0000  0.6532 -1.2168 -0.0420 -0.6106  0.4434 -0.1496
  25. Li 2 (px)   0.0000  0.0000  1.3804 -1.1700 -0.0448 -0.4539  0.7480 -0.6185
  26. Li 2 (py)   0.0000  0.0000 -0.6961 -0.6755  0.0017  0.0410 -0.2936  0.0642
  27. Li 2 (pz)   0.8612  0.4972  0.0000  0.0000  0.0000  0.0000  0.0000  0.0000
  28. Li 2 (S)    0.0000  0.0000  1.4835 -1.5776 -0.0623 -0.2683  9.3851 -2.6903
  29. Li 2 (px)   0.0000  0.0000  0.1538 -0.2719 -0.0355 -0.1501  3.6268 -0.9861
  30. Li 2 (py)   0.0000  0.0000  0.4847 -0.1570  0.0013  0.0275 -0.2996 -0.0606
  31. Li 2 (pz)   0.2794  0.1613  0.0000  0.0000  0.0000  0.0000  0.0000  0.0000
  32. Li 2 (d5)   0.0000  0.0000 -0.0612  1.3077  0.0000  0.0011  0.0200  0.0230
  33. Li 2 (d2)   1.2171  0.0859  0.0000  0.0000  0.0000  0.0000  0.0000  0.0000
  34. Li 2 (d3)   0.0859  1.1179  0.0000  0.0000  0.0000  0.0000  0.0000  0.0000
  35. Li 2 (d4)   0.0000  0.0000  1.4096 -0.0612  0.0000 -0.0013 -0.0283 -0.0604
  36. Li 2 (d1)   0.0000  0.0000 -0.0827 -0.1060  0.0000 -0.0001 -0.0037 -0.0098
  37. Li 3 (S)    0.0000  0.0000 -0.1659  0.0893  0.6281  0.1151 -0.2069 -1.5899
  38. Li 3 (S)    0.0000  0.0000  0.3085 -0.1740  0.4177 -0.4832  0.0808  1.6886
  39. Li 3 (px)   0.0000  0.0000  0.2231 -0.1221 -0.0004 -0.0258 -0.2671  0.0194
  40. Li 3 (py)   0.0000  0.0000  0.0218 -0.0149  0.0002  0.0149  0.1542 -0.0112
  41. Li 3 (pz)  -0.0043 -0.0033  0.0000  0.0000  0.0000  0.0000  0.0000  0.0000
  42. Li 3 (S)    0.0000  0.0000 -1.9554  1.0083  0.0819  1.9740  2.7283 -0.0091
  43. Li 3 (px)   0.0000  0.0000  1.7309 -0.9774 -0.0425 -0.5867  1.3942 -0.7326
  44. Li 3 (py)   0.0000  0.0000 -0.3488 -0.0803  0.0246  0.3387 -0.8049  0.4230
  45. Li 3 (pz)  -0.2814  0.1163  0.0000  0.0000  0.0000  0.0000  0.0000  0.0000
  46. Li 3 (S)    0.0000  0.0000 -2.5551  1.2542  0.0976  0.4821-30.8533  7.4504
  47. Li 3 (px)   0.0000  0.0000  0.0780 -0.1306 -0.0356  0.0106  8.1853 -1.7940
  48. Li 3 (py)   0.0000  0.0000 -0.5664  0.1120  0.0206 -0.0061 -4.7258  1.0358
  49. Li 3 (pz)   0.5770  0.0268  0.0000  0.0000  0.0000  0.0000  0.0000  0.0000
  50. Li 3 (d5)   0.0000  0.0000  0.1854 -0.0884  0.0000 -0.0009 -0.0205 -0.0446
  51. Li 3 (d2)   0.1829 -0.0129  0.0000  0.0000  0.0000  0.0000  0.0000  0.0000
  52. Li 3 (d3)   0.0129  0.0078  0.0000  0.0000  0.0000  0.0000  0.0000  0.0000
  53. Li 3 (d4)   0.0000  0.0000 -0.3200  0.1854  0.0000 -0.0040 -0.0598  0.0267
  54. Li 3 (d1)   0.0000  0.0000  0.0236  0.0124 -0.0001  0.0069  0.1036 -0.0462
  55. Li 4 (S)   -0.0366 -0.0212 -0.0080 -0.0368  0.0022 -0.0067  0.0234  0.0076
  56. Li 4 (S)    0.0797  0.0460  0.0178  0.1003  0.0019  0.0497  0.0082 -0.0259
  57. Li 4 (px)   0.0268 -0.0028  0.0190 -0.0328  0.0000 -0.0046 -0.0562  0.0175
  58. Li 4 (py)  -0.0028  0.0301 -0.0080 -0.0189  0.0000  0.0027  0.0324 -0.0101
  59. Li 4 (pz)   0.0001  0.0000  0.0026 -0.0057  0.0001 -0.0013 -0.0413 -0.0139
  60. Li 4 (S)   -0.2473 -0.1428 -0.1307 -0.3149 -0.0012 -0.2399 -0.2331  0.2708
  61. Li 4 (px)   0.1734  0.1353  0.1056  0.1047 -0.0007  0.0194  0.4941 -0.1577
  62. Li 4 (py)   0.1353  0.0172 -0.0336  0.0604  0.0004 -0.0112 -0.2853  0.0910
  63. Li 4 (pz)   0.3188  0.1841  0.0413  0.3299  0.0011  0.0094 -0.1106 -0.0015
  64. Li 4 (S)   -1.1541 -0.6663 -0.0028 -0.4842 -0.0029  0.2514  5.1993 -1.0893
  65. Li 4 (px)  -0.0503  0.0255  0.1610 -0.1829 -0.0032 -0.0325  0.7311 -0.2051
  66. Li 4 (py)   0.0255 -0.0797 -0.1051 -0.1056  0.0019  0.0187 -0.4221  0.1184
  67. Li 4 (pz)   0.3114  0.1798 -0.0215  0.1886  0.0075 -0.0361 -2.1000  0.4644
  68. Li 4 (d5)  -0.0967 -0.0558 -0.0186 -0.0693  0.0000  0.0003  0.0054  0.0090
  69. Li 4 (d2)  -0.1066 -0.0780 -0.0319 -0.0848  0.0000 -0.0019 -0.0280  0.0121
  70. Li 4 (d3)  -0.0780 -0.0166 -0.0090 -0.0490  0.0000  0.0011  0.0162 -0.0070
  71. Li 4 (d4)   0.0054 -0.0508  0.0249 -0.0202  0.0000  0.0008  0.0122 -0.0058
  72. Li 4 (d1)  -0.0446  0.0054 -0.0147 -0.0350  0.0000 -0.0014 -0.0211  0.0100
  73. Li 5 (S)    0.0366  0.0212 -0.0080 -0.0368  0.0022 -0.0067  0.0234  0.0076
  74. Li 5 (S)   -0.0797 -0.0460  0.0178  0.1003  0.0019  0.0497  0.0082 -0.0259
  75. Li 5 (px)  -0.0268  0.0028  0.0190 -0.0328  0.0000 -0.0046 -0.0562  0.0175
  76. Li 5 (py)   0.0028 -0.0301 -0.0080 -0.0189  0.0000  0.0027  0.0324 -0.0101
  77. Li 5 (pz)   0.0001  0.0000 -0.0026  0.0057 -0.0001  0.0013  0.0413  0.0139
  78. Li 5 (S)    0.2473  0.1428 -0.1307 -0.3149 -0.0012 -0.2399 -0.2331  0.2708
  79. Li 5 (px)  -0.1734 -0.1353  0.1056  0.1047 -0.0007  0.0194  0.4941 -0.1577
  80. Li 5 (py)  -0.1353 -0.0172 -0.0336  0.0604  0.0004 -0.0112 -0.2853  0.0910
  81. Li 5 (pz)   0.3188  0.1841 -0.0413 -0.3299 -0.0011 -0.0094  0.1106  0.0015
  82. Li 5 (S)    1.1541  0.6663 -0.0028 -0.4842 -0.0029  0.2514  5.1993 -1.0893
  83. Li 5 (px)   0.0503 -0.0255  0.1610 -0.1829 -0.0032 -0.0325  0.7311 -0.2051
  84. Li 5 (py)  -0.0255  0.0797 -0.1051 -0.1056  0.0019  0.0187 -0.4221  0.1184
  85. Li 5 (pz)   0.3114  0.1798  0.0215 -0.1886 -0.0075  0.0361  2.1000 -0.4644
  86. Li 5 (d5)   0.0967  0.0558 -0.0186 -0.0693  0.0000  0.0003  0.0054  0.0090
  87. Li 5 (d2)  -0.1066 -0.0780  0.0319  0.0848  0.0000  0.0019  0.0280 -0.0121
  88. Li 5 (d3)  -0.0780 -0.0166  0.0090  0.0490  0.0000 -0.0011 -0.0162  0.0070
  89. Li 5 (d4)  -0.0054  0.0508  0.0249 -0.0202  0.0000  0.0008  0.0122 -0.0058
  90. Li 5 (d1)   0.0446 -0.0054 -0.0147 -0.0350  0.0000 -0.0014 -0.0211  0.0100

          AO        41      42      43      44      45      46      47      48
      ---------- ------- ------- ------- ------- ------- ------- ------- -------
   1. Li 1 (S)    0.0445  0.0493 -0.0148 -0.1173  0.0793  0.0480  0.0000  0.0000
   2. Li 1 (S)   -0.0376 -0.0606 -0.0156  0.1693 -0.1453 -0.0269  0.0000  0.0000
   3. Li 1 (px)  -0.0077  0.0326 -0.0062 -0.0234  0.1025  0.0711  0.0000  0.0000
   4. Li 1 (py)  -0.0016  0.0121  0.0516  0.0117 -0.0401 -0.0306  0.0000  0.0000
   5. Li 1 (pz)   0.0000  0.0000  0.0000  0.0000  0.0000  0.0000  0.0033 -0.0269
   6. Li 1 (S)    0.2030  0.3038 -0.2771 -0.7869  0.6609  0.6279  0.0000  0.0000
   7. Li 1 (px)   0.0753 -0.2378  0.0904 -0.3502 -0.0741  0.5115  0.0000  0.0000
   8. Li 1 (py)  -0.2003  0.0131  0.1839  0.5241 -0.7706 -0.2977  0.0000  0.0000
   9. Li 1 (pz)   0.0000  0.0000  0.0000  0.0000  0.0000  0.0000 -0.1454  0.1599
  10. Li 1 (S)    0.3595  0.4395  0.7591 -1.1811  0.8856 -0.5098  0.0000  0.0000
  11. Li 1 (px)   0.0935 -0.4910 -0.3963 -0.1838 -0.9455 -1.2038  0.0000  0.0000
  12. Li 1 (py)  -0.1651 -0.0912 -0.3278  0.3677 -0.3340  0.1106  0.0000  0.0000
  13. Li 1 (pz)   0.0000  0.0000  0.0000  0.0000  0.0000  0.0000 -0.1589  0.3643
  14. Li 1 (d5)  -0.0011 -0.0003 -0.0157  0.0013  0.0003  0.0184  0.0000  0.0000
  15. Li 1 (d2)   0.0000  0.0000  0.0000  0.0000  0.0000  0.0000  0.0027  0.0007
  16. Li 1 (d3)   0.0000  0.0000  0.0000  0.0000  0.0000  0.0000 -0.0035 -0.0009
  17. Li 1 (d4)   0.0010  0.0003  0.0141  0.0041  0.0011  0.0578  0.0000  0.0000
  18. Li 1 (d1)  -0.0024 -0.0006 -0.0343 -0.0002  0.0000 -0.0023  0.0000  0.0000
  19. Li 2 (S)    0.1239 -0.0440 -0.0490  0.0201 -0.0823 -0.0112  0.0000  0.0000
  20. Li 2 (S)   -0.1654  0.0956  0.0155 -0.0521  0.1252  0.0270  0.0000  0.0000
  21. Li 2 (px)   0.0176 -0.0716 -0.0776  0.0130 -0.0480  0.0103  0.0000  0.0000
  22. Li 2 (py)  -0.0087  0.0424  0.0298 -0.0137  0.0641  0.0408  0.0000  0.0000
  23. Li 2 (pz)   0.0000  0.0000  0.0000  0.0000  0.0000  0.0000  0.0033 -0.0269
  24. Li 2 (S)    0.7830 -0.4205 -0.6823  0.2176 -0.5935 -0.0739  0.0000  0.0000
  25. Li 2 (px)   0.6503 -0.6110 -0.5018  0.1316 -0.2024 -0.1580  0.0000  0.0000
  26. Li 2 (py)  -0.0182 -0.2896  0.1696 -0.0509 -0.3974  0.2946  0.0000  0.0000
  27. Li 2 (pz)   0.0000  0.0000  0.0000  0.0000  0.0000  0.0000 -0.1454  0.1599
  28. Li 2 (S)    1.2026 -0.5472  0.8210  0.2792 -0.8235 -0.4025  0.0000  0.0000
  29. Li 2 (px)   0.4502  0.0756  0.6471  0.0409  0.2359  0.2746  0.0000  0.0000
  30. Li 2 (py)   0.0221 -0.6183 -0.6014  0.0110 -0.9007 -0.9328  0.0000  0.0000
  31. Li 2 (pz)   0.0000  0.0000  0.0000  0.0000  0.0000  0.0000 -0.1589  0.3643
  32. Li 2 (d5)  -0.0017 -0.0004 -0.0238  0.0003  0.0001  0.0044  0.0000  0.0000
  33. Li 2 (d2)   0.0000  0.0000  0.0000  0.0000  0.0000  0.0000  0.0044  0.0012
  34. Li 2 (d3)   0.0000  0.0000  0.0000  0.0000  0.0000  0.0000 -0.0006 -0.0002
  35. Li 2 (d4)   0.0024  0.0006  0.0346 -0.0004 -0.0001 -0.0062  0.0000  0.0000
  36. Li 2 (d1)   0.0021  0.0006  0.0296  0.0036  0.0010  0.0511  0.0000  0.0000
  37. Li 3 (S)   -0.1119  0.0746  0.0855  0.0646 -0.0431 -0.0493  0.0000  0.0000
  38. Li 3 (S)    0.2315 -0.0445 -0.1744 -0.1337  0.0257  0.1007  0.0000  0.0000
  39. Li 3 (px)   0.1934 -0.3542  1.2672  0.0035 -0.0277 -0.0158  0.0000  0.0000
  40. Li 3 (py)   0.0035 -0.0277 -0.0158  0.1974 -0.3862  1.2490  0.0000  0.0000
  41. Li 3 (pz)   0.0000  0.0000  0.0000  0.0000  0.0000  0.0000  0.2388 -0.5858
  42. Li 3 (S)   -0.9952  0.3181  0.9287  0.5746 -0.1837 -0.5362  0.0000  0.0000
  43. Li 3 (px)   1.4661 -1.2422 -2.3148 -0.1491  0.1191  0.0587  0.0000  0.0000
  44. Li 3 (py)  -0.1491  0.1191  0.0587  1.2939 -1.1047 -2.2470  0.0000  0.0000
  45. Li 3 (pz)   0.0000  0.0000  0.0000  0.0000  0.0000  0.0000  0.9499  0.0460
  46. Li 3 (S)   -1.6165  0.3724 -2.1733  0.9333 -0.2150  1.2548  0.0000  0.0000
  47. Li 3 (px)   0.7046  2.1675  2.1938 -0.1634  0.3354  0.1318  0.0000  0.0000
  48. Li 3 (py)  -0.1634  0.3354  0.1318  0.5159  2.5548  2.3460  0.0000  0.0000
  49. Li 3 (pz)   0.0000  0.0000  0.0000  0.0000  0.0000  0.0000  0.0658  5.2880
  50. Li 3 (d5)  -0.0017 -0.0004 -0.0240  0.0010  0.0003  0.0138  0.0000  0.0000
  51. Li 3 (d2)   0.0000  0.0000  0.0000  0.0000  0.0000  0.0000  0.0066  0.0017
  52. Li 3 (d3)   0.0000  0.0000  0.0000  0.0000  0.0000  0.0000 -0.0038 -0.0010
  53. Li 3 (d4)   0.0042  0.0011  0.0596  0.0041  0.0011  0.0576  0.0000  0.0000
  54. Li 3 (d1)  -0.0008 -0.0002 -0.0113  0.0042  0.0011  0.0596  0.0000  0.0000
  55. Li 4 (S)    0.0094  0.0284 -0.0026 -0.0054 -0.0164  0.0015 -0.0167 -0.1018
  56. Li 4 (S)   -0.0050 -0.0478 -0.0051  0.0029  0.0276  0.0029  0.0652  0.0887
  57. Li 4 (px)  -0.0020 -0.0060 -0.0336  0.0008 -0.0003  0.0114 -0.0008 -0.0128
  58. Li 4 (py)   0.0008 -0.0003  0.0114 -0.0011 -0.0063 -0.0205  0.0005  0.0074
  59. Li 4 (pz)   0.0013  0.0004  0.0254 -0.0008 -0.0002 -0.0147 -0.0073  0.0172
  60. Li 4 (S)    0.0286  0.3121 -0.1257 -0.0165 -0.1802  0.0726 -0.4880  0.3850
  61. Li 4 (px)   0.0100 -0.0722  0.0691  0.0004 -0.0065  0.0109  0.0180 -0.1682
  62. Li 4 (py)   0.0004 -0.0065  0.0109  0.0104 -0.0797  0.0816 -0.0104  0.0971
  63. Li 4 (pz)  -0.0023  0.0002  0.0549  0.0013 -0.0001 -0.0317 -0.0356  0.2525
  64. Li 4 (S)    0.0973 -0.0866  0.4784 -0.0562  0.0500 -0.2762  0.6640 -5.7219
  65. Li 4 (px)   0.0153 -0.4549 -0.2250 -0.0039 -0.0415 -0.0209 -0.0815 -1.0821
  66. Li 4 (py)  -0.0039 -0.0415 -0.0209  0.0108 -0.5028 -0.2491  0.0471  0.6248
  67. Li 4 (pz)  -0.0528 -0.0087 -0.2103  0.0305  0.0050  0.1214 -0.1476  1.5674
  68. Li 4 (d5)  -0.0019 -0.0005 -0.0264  0.0011  0.0003  0.0152 -0.0018 -0.0005
  69. Li 4 (d2)   0.0002  0.0001  0.0027 -0.0012 -0.0003 -0.0165 -0.0050 -0.0013
  70. Li 4 (d3)  -0.0012 -0.0003 -0.0165 -0.0012 -0.0003 -0.0164  0.0029  0.0008
  71. Li 4 (d4)   0.0012  0.0003  0.0163  0.0012  0.0003  0.0171  0.0010  0.0003
  72. Li 4 (d1)  -0.0001  0.0000 -0.0017  0.0012  0.0003  0.0163 -0.0017 -0.0004
  73. Li 5 (S)    0.0094  0.0284 -0.0026 -0.0054 -0.0164  0.0015  0.0167  0.1018
  74. Li 5 (S)   -0.0050 -0.0478 -0.0051  0.0029  0.0276  0.0029 -0.0652 -0.0887
  75. Li 5 (px)  -0.0020 -0.0060 -0.0336  0.0008 -0.0003  0.0114  0.0008  0.0128
  76. Li 5 (py)   0.0008 -0.0003  0.0114 -0.0011 -0.0063 -0.0205 -0.0005 -0.0074
  77. Li 5 (pz)  -0.0013 -0.0004 -0.0254  0.0008  0.0002  0.0147 -0.0073  0.0172
  78. Li 5 (S)    0.0286  0.3121 -0.1257 -0.0165 -0.1802  0.0726  0.4880 -0.3850
  79. Li 5 (px)   0.0100 -0.0722  0.0691  0.0004 -0.0065  0.0109 -0.0180  0.1682
  80. Li 5 (py)   0.0004 -0.0065  0.0109  0.0104 -0.0797  0.0816  0.0104 -0.0971
  81. Li 5 (pz)   0.0023 -0.0002 -0.0549 -0.0013  0.0001  0.0317 -0.0356  0.2525
  82. Li 5 (S)    0.0973 -0.0866  0.4784 -0.0562  0.0500 -0.2762 -0.6640  5.7219
  83. Li 5 (px)   0.0153 -0.4549 -0.2250 -0.0039 -0.0415 -0.0209  0.0815  1.0821
  84. Li 5 (py)  -0.0039 -0.0415 -0.0209  0.0108 -0.5028 -0.2491 -0.0471 -0.6248
  85. Li 5 (pz)   0.0528  0.0087  0.2103 -0.0305 -0.0050 -0.1214 -0.1476  1.5674
  86. Li 5 (d5)  -0.0019 -0.0005 -0.0264  0.0011  0.0003  0.0152  0.0018  0.0005
  87. Li 5 (d2)  -0.0002 -0.0001 -0.0027  0.0012  0.0003  0.0165 -0.0050 -0.0013
  88. Li 5 (d3)   0.0012  0.0003  0.0165  0.0012  0.0003  0.0164  0.0029  0.0008
  89. Li 5 (d4)   0.0012  0.0003  0.0163  0.0012  0.0003  0.0171 -0.0010 -0.0003
  90. Li 5 (d1)  -0.0001  0.0000 -0.0017  0.0012  0.0003  0.0163  0.0017  0.0004

          AO        49      50      51      52      53      54      55      56
      ---------- ------- ------- ------- ------- ------- ------- ------- -------
   1. Li 1 (S)    0.0000  0.1392  0.0000  0.0000  0.0907  0.0893  0.0020  0.0193
   2. Li 1 (S)    0.0000 -0.2529  0.0000  0.0000 -0.1790 -0.1740  0.0042  0.0105
   3. Li 1 (px)   0.0000  0.1335  0.0000  0.0000  0.0297  0.0740  0.0000  0.0000
   4. Li 1 (py)   0.0000 -0.1650  0.0000  0.0000 -0.0789 -0.0982  0.0001 -0.0008
   5. Li 1 (pz)  -0.0129  0.0000  0.0050 -0.0021  0.0000  0.0000  0.0002 -0.0232
   6. Li 1 (S)    0.0000  1.6822  0.0000  0.0000  0.9970  1.0083 -0.0092  0.0124
   7. Li 1 (px)   0.0000  0.4923  0.0000  0.0000  0.2740  0.5582  0.0000  0.0000
   8. Li 1 (py)   0.0000 -1.4290  0.0000  0.0000 -0.8718 -0.8063  0.0063  0.0646
   9. Li 1 (pz)   0.4511  0.0000  0.0400 -0.3019  0.0000  0.0000 -0.0189 -0.0498
  10. Li 1 (S)    0.0000  2.1900  0.0000  0.0000  1.3170  1.2542 -0.0121 -0.0002
  11. Li 1 (px)   0.0000 -0.1840  0.0000  0.0000 -0.5844 -0.0317  0.0000  0.0000
  12. Li 1 (py)   0.0000 -0.2273  0.0000  0.0000 -0.3077 -0.1691  0.0045  0.0614
  13. Li 1 (pz)   0.4468  0.0000 -0.3117  0.4863  0.0000  0.0000 -0.0181  0.1400
  14. Li 1 (d5)   0.0000 -0.1543  0.0000  0.0000 -0.1035 -0.0884  0.0000  0.0004
  15. Li 1 (d2)   0.0379  0.0000  0.0515 -0.0887  0.0000  0.0000  0.0000  0.0000
  16. Li 1 (d3)  -0.0495  0.0000 -0.0629  0.1391  0.0000  0.0000  0.0000  0.0000
  17. Li 1 (d4)   0.0000 -0.2178  0.0000  0.0000  0.0164 -0.0819  0.0000  0.0001
  18. Li 1 (d1)   0.0000 -0.2078  0.0000  0.0000 -0.1706 -0.1668  0.0000  0.0000
  19. Li 2 (S)    0.0000 -0.0090  0.0000  0.0000 -0.1659  0.0893  0.0020  0.0193
  20. Li 2 (S)    0.0000  0.0286  0.0000  0.0000  0.3085 -0.1740  0.0042  0.0105
  21. Li 2 (px)   0.0000  0.0328  0.0000  0.0000 -0.2231  0.1221 -0.0001  0.0007
  22. Li 2 (py)   0.0000 -0.0285  0.0000  0.0000  0.0218 -0.0149 -0.0001  0.0004
  23. Li 2 (pz)  -0.0129  0.0000  0.0043 -0.0033  0.0000  0.0000  0.0002 -0.0232
  24. Li 2 (S)    0.0000 -0.0223  0.0000  0.0000 -1.9554  1.0083 -0.0092  0.0124
  25. Li 2 (px)   0.0000 -0.0307  0.0000  0.0000 -1.7309  0.9774 -0.0054 -0.0559
  26. Li 2 (py)   0.0000 -0.0280  0.0000  0.0000 -0.3488 -0.0803 -0.0031 -0.0323
  27. Li 2 (pz)   0.4511  0.0000  0.2814  0.1163  0.0000  0.0000 -0.0189 -0.0498
  28. Li 2 (S)    0.0000 -0.0456  0.0000  0.0000 -2.5551  1.2542 -0.0121 -0.0002
  29. Li 2 (px)   0.0000  0.0747  0.0000  0.0000 -0.0780  0.1306 -0.0039 -0.0531
  30. Li 2 (py)   0.0000 -0.4350  0.0000  0.0000 -0.5664  0.1120 -0.0022 -0.0307
  31. Li 2 (pz)   0.4468  0.0000 -0.5770  0.0268  0.0000  0.0000 -0.0181  0.1400
  32. Li 2 (d5)   0.0000  0.0124  0.0000  0.0000  0.1854 -0.0884  0.0000  0.0004
  33. Li 2 (d2)   0.0618  0.0000  0.1829  0.0129  0.0000  0.0000  0.0000  0.0000
  34. Li 2 (d3)  -0.0081  0.0000 -0.0129  0.0078  0.0000  0.0000  0.0000  0.0000
  35. Li 2 (d4)   0.0000  0.0236  0.0000  0.0000 -0.3200  0.1854  0.0000 -0.0001
  36. Li 2 (d1)   0.0000  0.1285  0.0000  0.0000 -0.0236 -0.0124  0.0000 -0.0001
  37. Li 3 (S)    0.0000 -0.1033  0.0000  0.0000  0.0596 -0.0950  0.0020  0.0193
  38. Li 3 (S)    0.0000  0.2262  0.0000  0.0000 -0.1306  0.1773  0.0042  0.0105
  39. Li 3 (px)   0.0000 -0.0026  0.0000  0.0000 -0.0348  0.0529  0.0001 -0.0007
  40. Li 3 (py)   0.0000 -0.0348  0.0000  0.0000 -0.0428 -0.0305 -0.0001  0.0004
  41. Li 3 (pz)   1.2053  0.0000  0.0858 -0.0496  0.0000  0.0000  0.0002 -0.0232
  42. Li 3 (S)    0.0000 -1.1314  0.0000  0.0000  0.6532 -1.2168 -0.0092  0.0124
  43. Li 3 (px)   0.0000  0.8979  0.0000  0.0000 -1.3804  1.1700  0.0054  0.0559
  44. Li 3 (py)   0.0000 -1.3804  0.0000  0.0000 -0.6961 -0.6755 -0.0031 -0.0323
  45. Li 3 (pz)  -2.3043  0.0000 -0.8612  0.4972  0.0000  0.0000 -0.0189 -0.0498
  46. Li 3 (S)    0.0000 -2.5694  0.0000  0.0000  1.4835 -1.5776 -0.0121 -0.0002
  47. Li 3 (px)   0.0000  0.6623  0.0000  0.0000 -0.1538  0.2719  0.0039  0.0531
  48. Li 3 (py)   0.0000 -0.1538  0.0000  0.0000  0.4847 -0.1570 -0.0022 -0.0307
  49. Li 3 (pz)   5.4676  0.0000 -0.2794  0.1613  0.0000  0.0000 -0.0181  0.1400
  50. Li 3 (d5)   0.0000  0.1060  0.0000  0.0000 -0.0612  1.3077  0.0000  0.0004
  51. Li 3 (d2)   0.0938  0.0000  1.2171 -0.0859  0.0000  0.0000  0.0000  0.0000
  52. Li 3 (d3)  -0.0541  0.0000 -0.0859  1.1179  0.0000  0.0000  0.0000  0.0000
  53. Li 3 (d4)   0.0000  0.0827  0.0000  0.0000  1.4096 -0.0612  0.0000 -0.0001
  54. Li 3 (d1)   0.0000  1.3142  0.0000  0.0000  0.0827  0.1060  0.0000  0.0001
  55. Li 4 (S)    0.0022  0.0139  0.0366 -0.0212 -0.0080 -0.0368  0.6230 -0.0542
  56. Li 4 (S)   -0.0444 -0.0308 -0.0797  0.0460  0.0178  0.1003  0.4264 -0.2848
  57. Li 4 (px)  -0.0108  0.0140  0.0268  0.0028 -0.0190  0.0328  0.0000  0.0000
  58. Li 4 (py)   0.0062 -0.0190  0.0028  0.0301 -0.0080 -0.0189  0.0000  0.0000
  59. Li 4 (pz)  -0.0585 -0.0045 -0.0001  0.0000  0.0026 -0.0057 -0.0003  0.0053
  60. Li 4 (S)    1.0336  0.2264  0.2473 -0.1428 -0.1307 -0.3149  0.0235  1.6625
  61. Li 4 (px)   0.2673  0.0883  0.1734 -0.1353 -0.1056 -0.1047  0.0000  0.0000
  62. Li 4 (py)  -0.1543 -0.1056 -0.1353  0.0172 -0.0336  0.0604  0.0000  0.0000
  63. Li 4 (pz)   0.1182 -0.0716 -0.3188  0.1841  0.0413  0.3299 -0.0043  0.0694
  64. Li 4 (S)   -6.1794  0.0049  1.1541 -0.6663 -0.0028 -0.4842  0.0309 -1.0594
  65. Li 4 (px)  -1.0782  0.0808 -0.0503 -0.0255 -0.1610  0.1829  0.0000  0.0000
  66. Li 4 (py)   0.6225 -0.1610 -0.0255 -0.0797 -0.1051 -0.1056  0.0000  0.0000
  67. Li 4 (pz)   1.7238  0.0373 -0.3114  0.1798 -0.0215  0.1886 -0.0256  0.4124
  68. Li 4 (d5)  -0.0253  0.0321  0.0967 -0.0558 -0.0186 -0.0693  0.0000  0.0001
  69. Li 4 (d2)  -0.0706 -0.0458 -0.1066  0.0780  0.0319  0.0848  0.0000  0.0000
  70. Li 4 (d3)   0.0408  0.0319  0.0780 -0.0166 -0.0090 -0.0490  0.0000  0.0000
  71. Li 4 (d4)   0.0136  0.0147 -0.0054 -0.0508  0.0249 -0.0202  0.0000  0.0000
  72. Li 4 (d1)  -0.0235  0.0079 -0.0446 -0.0054  0.0147  0.0350  0.0000  0.0000
  73. Li 5 (S)   -0.0022  0.0139 -0.0366  0.0212 -0.0080 -0.0368 -0.0019  0.0081
  74. Li 5 (S)    0.0444 -0.0308  0.0797 -0.0460  0.0178  0.1003  0.0035  0.0005
  75. Li 5 (px)   0.0108  0.0140 -0.0268 -0.0028 -0.0190  0.0328  0.0000  0.0000
  76. Li 5 (py)  -0.0062 -0.0190 -0.0028 -0.0301 -0.0080 -0.0189  0.0000  0.0000
  77. Li 5 (pz)  -0.0585  0.0045 -0.0001  0.0000 -0.0026  0.0057 -0.0001  0.0035
  78. Li 5 (S)   -1.0336  0.2264 -0.2473  0.1428 -0.1307 -0.3149 -0.0169 -0.1103
  79. Li 5 (px)  -0.2673  0.0883 -0.1734  0.1353 -0.1056 -0.1047  0.0000  0.0000
  80. Li 5 (py)   0.1543 -0.1056  0.1353 -0.0172 -0.0336  0.0604  0.0000  0.0000
  81. Li 5 (pz)   0.1182  0.0716 -0.3188  0.1841 -0.0413 -0.3299 -0.0010  0.0399
  82. Li 5 (S)    6.1794  0.0049 -1.1541  0.6663 -0.0028 -0.4842 -0.0212  0.6696
  83. Li 5 (px)   1.0782  0.0808  0.0503  0.0255 -0.1610  0.1829  0.0000  0.0000
  84. Li 5 (py)  -0.6225 -0.1610  0.0255  0.0797 -0.1051 -0.1056  0.0000  0.0000
  85. Li 5 (pz)   1.7238 -0.0373 -0.3114  0.1798  0.0215 -0.1886 -0.0064  0.2486
  86. Li 5 (d5)   0.0253  0.0321 -0.0967  0.0558 -0.0186 -0.0693  0.0000 -0.0003
  87. Li 5 (d2)  -0.0706  0.0458 -0.1066  0.0780 -0.0319 -0.0848  0.0000  0.0000
  88. Li 5 (d3)   0.0408 -0.0319  0.0780 -0.0166  0.0090  0.0490  0.0000  0.0000
  89. Li 5 (d4)  -0.0136  0.0147  0.0054  0.0508  0.0249 -0.0202  0.0000  0.0000
  90. Li 5 (d1)   0.0235  0.0079  0.0446  0.0054  0.0147  0.0350  0.0000  0.0000

          AO        57      58      59      60      61      62      63      64
      ---------- ------- ------- ------- ------- ------- ------- ------- -------
   1. Li 1 (S)   -0.0926 -0.0700  0.0000  0.0000  0.0000 -0.0481 -0.0854  0.0560
   2. Li 1 (S)    0.1566  0.1183  0.0000  0.0000  0.0000  0.1410  0.1620 -0.1076
   3. Li 1 (px)   0.0000  0.0000  0.0117  0.0285  0.0041  0.0000  0.0000  0.0000
   4. Li 1 (py)   0.0171 -0.0112  0.0000  0.0000  0.0000 -0.0066 -0.0133  0.0160
   5. Li 1 (pz)   0.0782  0.1498  0.0000  0.0000  0.0000  0.0102  0.0330  0.0188
   6. Li 1 (S)   -0.7736 -0.4799  0.0000  0.0000  0.0000 -0.6006 -0.8022  0.5430
   7. Li 1 (px)   0.0000  0.0000 -0.0674  0.2387 -0.0048  0.0000  0.0000  0.0000
   8. Li 1 (py)  -0.0955 -0.0643  0.0000  0.0000  0.0000  0.2536  0.8586 -0.3317
   9. Li 1 (pz)  -0.6065 -0.7185  0.0000  0.0000  0.0000 -0.8350 -0.6932  0.6667
  10. Li 1 (S)   -0.7068 -1.0872  0.0000  0.0000  0.0000 -1.2722 -2.2580  1.9580
  11. Li 1 (px)   0.0000  0.0000  0.0811  0.5427 -0.4482  0.0000  0.0000  0.0000
  12. Li 1 (py)  -0.1878 -0.0083  0.0000  0.0000  0.0000  0.3038  1.0118 -0.9252
  13. Li 1 (pz)  -0.9451 -2.1712  0.0000  0.0000  0.0000  0.3462  1.7876 -0.8862
  14. Li 1 (d5)  -0.0079  0.0093  0.0000  0.0000  0.0000 -0.0132 -0.0370  0.0500
  15. Li 1 (d2)   0.0000  0.0000  0.0051  0.0058  0.0263  0.0000  0.0000  0.0000
  16. Li 1 (d3)  -0.0004  0.0005  0.0000  0.0000  0.0000  0.0557  0.1236 -0.0391
  17. Li 1 (d4)  -0.0031  0.0037  0.0000  0.0000  0.0000  0.0305  0.0661 -0.0127
  18. Li 1 (d1)   0.0000  0.0000 -0.0176 -0.0376  0.0040  0.0000  0.0000  0.0000
  19. Li 2 (S)   -0.0926 -0.0700  0.0417  0.0740 -0.0485  0.0240  0.0427 -0.0280
  20. Li 2 (S)    0.1566  0.1183 -0.1221 -0.1403  0.0932 -0.0705 -0.0810  0.0538
  21. Li 2 (px)  -0.0148  0.0097 -0.0020 -0.0028  0.0130 -0.0079 -0.0181  0.0051
  22. Li 2 (py)  -0.0085  0.0056 -0.0079 -0.0181  0.0051  0.0071  0.0181  0.0070
  23. Li 2 (pz)   0.0782  0.1498 -0.0089 -0.0286 -0.0163 -0.0051 -0.0165 -0.0094
  24. Li 2 (S)   -0.7736 -0.4799  0.5201  0.6948 -0.4702  0.3003  0.4011 -0.2715
  25. Li 2 (px)   0.0827  0.0557  0.1734  0.7036 -0.2500  0.1390  0.2684 -0.1416
  26. Li 2 (py)   0.0478  0.0322  0.1390  0.2684 -0.1416  0.0129  0.3936 -0.0866
  27. Li 2 (pz)  -0.6065 -0.7185  0.7232  0.6003 -0.5774  0.4175  0.3466 -0.3334
  28. Li 2 (S)   -0.7068 -1.0872  1.1018  1.9555 -1.6957  0.6361  1.1290 -0.9790
  29. Li 2 (px)   0.1626  0.0072  0.2482  0.8945 -0.8059  0.0964  0.2031 -0.2066
  30. Li 2 (py)   0.0939  0.0041  0.0964  0.2031 -0.2066  0.1368  0.6600 -0.5674
  31. Li 2 (pz)  -0.9451 -2.1712 -0.2998 -1.5481  0.7675 -0.1731 -0.8938  0.4431
  32. Li 2 (d5)  -0.0079  0.0093  0.0115  0.0320 -0.0433  0.0066  0.0185 -0.0250
  33. Li 2 (d2)   0.0003 -0.0004  0.0430  0.0942 -0.0228  0.0219  0.0510 -0.0283
  34. Li 2 (d3)   0.0002 -0.0002  0.0219  0.0510 -0.0283  0.0178  0.0352  0.0099
  35. Li 2 (d4)   0.0016 -0.0019  0.0209  0.0449 -0.0073 -0.0056 -0.0116 -0.0002
  36. Li 2 (d1)   0.0027 -0.0032  0.0185  0.0402 -0.0085  0.0209  0.0449 -0.0073
  37. Li 3 (S)   -0.0926 -0.0700 -0.0417 -0.0740  0.0485  0.0240  0.0427 -0.0280
  38. Li 3 (S)    0.1566  0.1183  0.1221  0.1403 -0.0932 -0.0705 -0.0810  0.0538
  39. Li 3 (px)   0.0148 -0.0097 -0.0020 -0.0028  0.0130  0.0079  0.0181 -0.0051
  40. Li 3 (py)  -0.0085  0.0056  0.0079  0.0181 -0.0051  0.0071  0.0181  0.0070
  41. Li 3 (pz)   0.0782  0.1498  0.0089  0.0286  0.0163 -0.0051 -0.0165 -0.0094
  42. Li 3 (S)   -0.7736 -0.4799 -0.5201 -0.6948  0.4702  0.3003  0.4011 -0.2715
  43. Li 3 (px)  -0.0827 -0.0557  0.1734  0.7036 -0.2500 -0.1390 -0.2684  0.1416
  44. Li 3 (py)   0.0478  0.0322 -0.1390 -0.2684  0.1416  0.0129  0.3936 -0.0866
  45. Li 3 (pz)  -0.6065 -0.7185 -0.7232 -0.6003  0.5774  0.4175  0.3466 -0.3334
  46. Li 3 (S)   -0.7068 -1.0872 -1.1018 -1.9555  1.6957  0.6361  1.1290 -0.9790
[...]
  18. LP (   1)Li   4                / 66. RY*(   2)Li   4                    1.91    0.89    0.066
  18. LP (   1)Li   4                / 67. RY*(   3)Li   4                    5.82    2.08    0.177
  18. LP (   1)Li   4                / 70. RY*(   6)Li   4                    4.14    0.90    0.098
  18. LP (   1)Li   4                / 77. RY*(  13)Li   4                    1.48    0.68    0.051

 from unit  4 to unit  5
  18. LP (   1)Li   4                / 79. RY*(   2)Li   5                    0.11    0.89    0.016
  18. LP (   1)Li   4                / 83. RY*(   6)Li   5                    0.07    0.90    0.013

 from unit  5 to unit  1
   5. CR (   1)Li   5                /  6. LP*(   1)Li   1                    0.70    2.14    0.041
   5. CR (   1)Li   5                /  7. LP*(   2)Li   1                    0.98    1.99    0.044
   5. CR (   1)Li   5                / 26. RY*(   1)Li   1                    0.17    2.23    0.017
  22. LP (   1)Li   5                /  6. LP*(   1)Li   1                   10.27    0.14    0.045
  22. LP (   1)Li   5                / 28. RY*(   3)Li   1                    0.08    3.18    0.025
  22. LP (   1)Li   5                / 29. RY*(   4)Li   1                    0.18    0.21    0.010
  22. LP (   1)Li   5                / 36. RY*(  11)Li   1                    0.21    0.61    0.018
  22. LP (   1)Li   5                / 38. RY*(  13)Li   1                    0.34    0.64    0.024

 from unit  5 to unit  2
   5. CR (   1)Li   5                / 10. LP*(   1)Li   2                    0.70    2.14    0.041
   5. CR (   1)Li   5                / 11. LP*(   2)Li   2                    0.98    1.99    0.044
   5. CR (   1)Li   5                / 39. RY*(   1)Li   2                    0.17    2.23    0.017
  22. LP (   1)Li   5                / 10. LP*(   1)Li   2                   10.27    0.14    0.045
  22. LP (   1)Li   5                / 41. RY*(   3)Li   2                    0.08    3.18    0.025
  22. LP (   1)Li   5                / 44. RY*(   6)Li   2                    0.13    0.22    0.009
  22. LP (   1)Li   5                / 48. RY*(  10)Li   2                    0.17    0.58    0.016
  22. LP (   1)Li   5                / 49. RY*(  11)Li   2                    0.06    0.52    0.009
  22. LP (   1)Li   5                / 51. RY*(  13)Li   2                    0.33    0.66    0.024

 from unit  5 to unit  3
   5. CR (   1)Li   5                / 14. LP*(   1)Li   3                    0.70    2.14    0.041
   5. CR (   1)Li   5                / 15. LP*(   2)Li   3                    0.98    1.99    0.044
   5. CR (   1)Li   5                / 52. RY*(   1)Li   3                    0.17    2.23    0.017
  22. LP (   1)Li   5                / 14. LP*(   1)Li   3                   10.27    0.14    0.045
  22. LP (   1)Li   5                / 54. RY*(   3)Li   3                    0.08    3.18    0.025
  22. LP (   1)Li   5                / 57. RY*(   6)Li   3                    0.13    0.22    0.009
  22. LP (   1)Li   5                / 61. RY*(  10)Li   3                    0.17    0.58    0.016
  22. LP (   1)Li   5                / 62. RY*(  11)Li   3                    0.06    0.52    0.009
  22. LP (   1)Li   5                / 64. RY*(  13)Li   3                    0.33    0.66    0.024

 from unit  5 to unit  4
  22. LP (   1)Li   5                / 66. RY*(   2)Li   4                    0.11    0.89    0.016
  22. LP (   1)Li   5                / 70. RY*(   6)Li   4                    0.07    0.90    0.013

 within unit  5
   5. CR (   1)Li   5                / 22. LP (   1)Li   5                    1.16    2.00    0.052
  22. LP (   1)Li   5                / 23. LP*(   2)Li   5                   18.04    0.28    0.114
  22. LP (   1)Li   5                / 24. LP*(   3)Li   5                    7.57    0.25    0.070
  22. LP (   1)Li   5                / 79. RY*(   2)Li   5                    1.91    0.89    0.066
  22. LP (   1)Li   5                / 80. RY*(   3)Li   5                    5.82    2.08    0.177
  22. LP (   1)Li   5                / 83. RY*(   6)Li   5                    4.14    0.90    0.098
  22. LP (   1)Li   5                / 90. RY*(  13)Li   5                    1.48    0.68    0.051


 Natural Bond Orbitals (Summary):

                                                            Principal Delocalizations
           NBO                        Occupancy    Energy   (geminal,vicinal,remote)
 ====================================================================================
 Molecular unit  1  (Li)
     1. CR (   1)Li   1                  1.99597    -2.12724  10(r),14(r),9(g),12(r),16(r)
                                                    18(r),22(r),13(r),17(r)
                                                    65(r),78(r),20(r),24(r)
                                                    40(r),53(r)
     6. LP*(   1)Li   1                  0.55080     0.02183  14(r),10(r),68(r),81(r)
                                                    42(r),55(r),28(g),30(g)
                                                    12(r),16(r),37(g),41(r)
                                                    54(r),29(g),47(r),60(r)
                                                    18(r),22(r),75(r),88(r)
                                                    44(r),57(r),50(r),63(r)
                                                    19(r),23(r),38(g),51(r)
                                                    64(r),9(g),65(r),78(r),45(r)
                                                    58(r),20(r),24(r),69(r)
                                                    82(r),27(g),76(r),89(r)
                                                    43(r),56(r),13(r),17(r)
                                                    67(r),80(r),70(r),83(r)
                                                    40(r),53(r),66(r),79(r)
                                                    77(r),90(r)
     7. LP*(   2)Li   1                  0.36965    -0.12585  15(r),11(r),18(r),22(r)
                                                    68(r),81(r),19(r),23(r)
                                                    65(r),78(r),20(r),24(r)
                                                    67(r),80(r),70(r),83(r)
                                                    66(r),79(r),77(r),90(r)
                                                    75(r),88(r),69(r),82(r)
                                                    39(r),52(r)
     8. LP*(   3)Li   1                  0.00155    -0.08184   
     9. LP*(   4)Li   1                  0.00132    -0.12503   
    26. RY*(   1)Li   1                  0.00024     0.10550   
    27. RY*(   2)Li   1                  0.00014     0.25511   
    28. RY*(   3)Li   1                  0.00000     3.06011   
    29. RY*(   4)Li   1                  0.00000     0.09262   
    30. RY*(   5)Li   1                  0.00000     0.18216   
    31. RY*(   6)Li   1                  0.00000     0.06328   
    32. RY*(   7)Li   1                  0.00000     0.29756   
    33. RY*(   8)Li   1                  0.00000     0.24366   
    34. RY*(   9)Li   1                  0.00000     0.63120   
    35. RY*(  10)Li   1                  0.00000     0.37502   
    36. RY*(  11)Li   1                  0.00000     0.48733   
    37. RY*(  12)Li   1                  0.00000     0.44267   
    38. RY*(  13)Li   1                  0.00000     0.51690   
       -------------------------------
              Total Lewis    1.99597  ( 68.3625%)
        Valence non-Lewis    0.92332  ( 31.6240%)
        Rydberg non-Lewis    0.00040  (  0.0136%)
       -------------------------------
            Total unit  1    2.91968  (100.0000%)
           Charge unit  1    0.08032

 Molecular unit  2  (Li)
     2. CR (   1)Li   2                  1.99597    -2.12724  6(r),14(r),13(g),8(r),16(r)
                                                    18(r),22(r),9(r),17(r),20(r)
                                                    24(r),21(r),25(r),27(r)
                                                    53(r)
    10. LP*(   1)Li   2                  0.55080     0.02183  6(r),14(r),31(r),71(r),84(r)
                                                    41(g),55(r),57(r),68(r)
                                                    81(r),8(r),16(r),45(g),28(r)
                                                    54(r),44(g),47(g),63(r)
                                                    42(g),34(r),18(r),22(r)
                                                    30(r),58(r),51(g),74(r)
                                                    87(r),29(r),19(r),23(r)
                                                    37(r),64(r),13(g),50(g)
                                                    38(r),75(r),88(r),21(r)
                                                    25(r),43(g),20(r),24(r)
                                                    40(g),72(r),85(r),73(r)
                                                    86(r),9(r),17(r),67(r),80(r)
                                                    65(r),78(r),70(r),83(r)
                                                    69(r),82(r),76(r),89(r)
                                                    27(r),53(r),66(r),79(r)
                                                    77(r),90(r),56(r)
    11. LP*(   2)Li   2                  0.36965    -0.12585  15(r),7(r),18(r),22(r),71(r)
                                                    84(r),19(r),23(r),20(r)
                                                    24(r),21(r),25(r),68(r)
                                                    81(r),67(r),80(r),70(r)
                                                    83(r),66(r),79(r),65(r)
                                                    78(r),77(r),90(r),26(r)
                                                    52(r)
    12. LP*(   3)Li   2                  0.00155    -0.08184   
    13. LP*(   4)Li   2                  0.00132    -0.12503   
    39. RY*(   1)Li   2                  0.00024     0.10550   
    40. RY*(   2)Li   2                  0.00014     0.25511   
    41. RY*(   3)Li   2                  0.00000     3.06017   
    42. RY*(   4)Li   2                  0.00000     0.07311   
    43. RY*(   5)Li   2                  0.00000     0.27709   
    44. RY*(   6)Li   2                  0.00000     0.09783   
    45. RY*(   7)Li   2                  0.00000     0.15744   
    46. RY*(   8)Li   2                  0.00000     0.24366   
    47. RY*(   9)Li   2                  0.00000     0.47599   
    48. RY*(  10)Li   2                  0.00000     0.46072   
    49. RY*(  11)Li   2                  0.00000     0.40163   
    50. RY*(  12)Li   2                  0.00000     0.60555   
    51. RY*(  13)Li   2                  0.00000     0.53934   
       -------------------------------
              Total Lewis    1.99597  ( 68.3625%)
        Valence non-Lewis    0.92332  ( 31.6240%)
        Rydberg non-Lewis    0.00040  (  0.0136%)
       -------------------------------
            Total unit  2    2.91968  (100.0000%)
           Charge unit  2    0.08032

 Molecular unit  3  (Li)
     3. CR (   1)Li   3                  1.99597    -2.12724  6(r),10(r),17(g),8(r),12(r)
                                                    18(r),22(r),9(r),13(r),20(r)
                                                    24(r),21(r),25(r),27(r)
                                                    40(r)
    14. LP*(   1)Li   3                  0.55080     0.02183  6(r),10(r),31(r),71(r),84(r)
                                                    54(g),42(r),44(r),68(r)
                                                    81(r),8(r),12(r),58(g),28(r)
                                                    41(r),57(g),60(g),50(r)
                                                    55(g),34(r),18(r),22(r)
                                                    30(r),45(r),64(g),74(r)
                                                    87(r),29(r),19(r),23(r)
                                                    37(r),51(r),17(g),63(g)
                                                    38(r),75(r),88(r),21(r)
                                                    25(r),56(g),20(r),24(r)
                                                    53(g),72(r),85(r),73(r)
                                                    86(r),9(r),13(r),67(r),80(r)
                                                    65(r),78(r),70(r),83(r)
                                                    69(r),82(r),76(r),89(r)
                                                    27(r),40(r),66(r),79(r)
                                                    77(r),90(r),43(r)
    15. LP*(   2)Li   3                  0.36965    -0.12585  11(r),7(r),18(r),22(r),71(r)
                                                    84(r),19(r),23(r),20(r)
                                                    24(r),21(r),25(r),68(r)
                                                    81(r),67(r),80(r),70(r)
                                                    83(r),66(r),79(r),65(r)
                                                    78(r),77(r),90(r),26(r)
                                                    39(r)
    16. LP*(   3)Li   3                  0.00155    -0.08184   
    17. LP*(   4)Li   3                  0.00132    -0.12503   
    52. RY*(   1)Li   3                  0.00024     0.10550   
    53. RY*(   2)Li   3                  0.00014     0.25511   
    54. RY*(   3)Li   3                  0.00000     3.06017   
    55. RY*(   4)Li   3                  0.00000     0.07311   
    56. RY*(   5)Li   3                  0.00000     0.27709   
    57. RY*(   6)Li   3                  0.00000     0.09783   
    58. RY*(   7)Li   3                  0.00000     0.15744   
    59. RY*(   8)Li   3                  0.00000     0.24366   
    60. RY*(   9)Li   3                  0.00000     0.47599   
    61. RY*(  10)Li   3                  0.00000     0.46072   
    62. RY*(  11)Li   3                  0.00000     0.40163   
    63. RY*(  12)Li   3                  0.00000     0.60555   
    64. RY*(  13)Li   3                  0.00000     0.53934   
       -------------------------------
              Total Lewis    1.99597  ( 68.3625%)
        Valence non-Lewis    0.92332  ( 31.6240%)
        Rydberg non-Lewis    0.00040  (  0.0136%)
       -------------------------------
            Total unit  3    2.91968  (100.0000%)
           Charge unit  3    0.08032

 Molecular unit  4  (Li)
     4. CR (   1)Li   4                  1.99888    -2.12036  18(g),7(r),11(r),15(r),6(r)
                                                    10(r),14(r),26(r),39(r)
                                                    52(r)
    18. LP (   1)Li   4                  0.61749    -0.11956  22(r),7(r),11(r),15(r),19(g)
                                                    20(g),67(g),6(r),10(r),14(r)
                                                    70(g),66(g),77(g),9(r),13(r)
                                                    17(r),38(r),51(r),64(r)
                                                    36(r),29(r),48(r),61(r)
                                                    44(r),57(r),79(r),28(r)
                                                    41(r),54(r),83(r),49(r)
                                                    62(r)
    19. LP*(   2)Li   4                  0.00359     0.15916   
    20. LP*(   3)Li   4                  0.00020     0.13130   
    21. LP*(   4)Li   4                  0.00013    -0.03787   
    65. RY*(   1)Li   4                  0.00013    -0.03787   
    66. RY*(   2)Li   4                  0.00006     0.76954   
    67. RY*(   3)Li   4                  0.00000     1.96344   
    68. RY*(   4)Li   4                  0.00000     0.06258   
    69. RY*(   5)Li   4                  0.00000     0.31658   
    70. RY*(   6)Li   4                  0.00000     0.77731   
    71. RY*(   7)Li   4                  0.00000     0.06258   
    72. RY*(   8)Li   4                  0.00000     0.31658   
    73. RY*(   9)Li   4                  0.00000     0.36587   
    74. RY*(  10)Li   4                  0.00000     0.46716   
    75. RY*(  11)Li   4                  0.00000     0.46716   
    76. RY*(  12)Li   4                  0.00000     0.36587   
    77. RY*(  13)Li   4                  0.00000     0.55701   
       -------------------------------
              Total Lewis    2.61638  ( 99.8436%)
        Valence non-Lewis    0.00391  (  0.1492%)
        Rydberg non-Lewis    0.00019  (  0.0072%)
       -------------------------------
            Total unit  4    2.62048  (100.0000%)
           Charge unit  4    0.37952

 Molecular unit  5  (Li)
     5. CR (   1)Li   5                  1.99888    -2.12036  22(g),7(r),11(r),15(r),6(r)
                                                    10(r),14(r),26(r),39(r)
                                                    52(r)
    22. LP (   1)Li   5                  0.61749    -0.11956  18(r),7(r),11(r),15(r),23(g)
                                                    24(g),80(g),6(r),10(r),14(r)
                                                    83(g),79(g),90(g),9(r),13(r)
                                                    17(r),38(r),51(r),64(r)
                                                    36(r),29(r),48(r),61(r)
                                                    44(r),57(r),66(r),28(r)
                                                    41(r),54(r),70(r),49(r)
                                                    62(r)
    23. LP*(   2)Li   5                  0.00359     0.15916   
    24. LP*(   3)Li   5                  0.00020     0.13130   
    25. LP*(   4)Li   5                  0.00013    -0.03787   
    78. RY*(   1)Li   5                  0.00013    -0.03787   
    79. RY*(   2)Li   5                  0.00006     0.76954   
    80. RY*(   3)Li   5                  0.00000     1.96344   
    81. RY*(   4)Li   5                  0.00000     0.06258   
    82. RY*(   5)Li   5                  0.00000     0.31658   
    83. RY*(   6)Li   5                  0.00000     0.77731   
    84. RY*(   7)Li   5                  0.00000     0.06258   
    85. RY*(   8)Li   5                  0.00000     0.31658   
    86. RY*(   9)Li   5                  0.00000     0.36587   
    87. RY*(  10)Li   5                  0.00000     0.46716   
    88. RY*(  11)Li   5                  0.00000     0.46716   
    89. RY*(  12)Li   5                  0.00000     0.36587   
    90. RY*(  13)Li   5                  0.00000     0.55701   
       -------------------------------
              Total Lewis    2.61638  ( 99.8436%)
        Valence non-Lewis    0.00391  (  0.1492%)
        Rydberg non-Lewis    0.00019  (  0.0072%)
       -------------------------------
            Total unit  5    2.62048  (100.0000%)
           Charge unit  5    0.37952
 1|1|UNPC-X500|SP|RB3LYP|6-311G(d)|Li5(1+)|SOBEREVA|14-May-2017|0||# b3
 lyp/6-311g(d) pop=nboread||b3lyp/6-311+G* opted||1,1|Li,0,0.,1.553614,
 0.|Li,0,-1.345469,-0.776807,0.|Li,0,1.345469,-0.776807,0.|Li,0,0.,0.,2
 .737999|Li,0,0.,0.,-2.737999||Version=IA32W-G09RevD.01|State=1-A1'|HF=
 -37.428856|RMSD=6.438e-009|Dipole=0.,0.,0.|Quadrupole=-4.7418858,-4.74
 18858,9.4837716,0.,0.,0.|PG=D03H [C3(Li1.Li1),3C2(Li1)]||@


 WORK FAITHFULLY FOR EIGHT HOURS A DAY AND DON'T WORRY.
 IN TIME YOU MAY BECOME BOSS AND WORK TWELVE HOURS A DAY
 AND HAVE ALL THE WORRY.
 Job cpu time:       0 days  0 hours  0 minutes  3.0 seconds.
 File lengths (MBytes):  RWF=      5 Int=      0 D2E=      0 Chk=      1 Scr=      1
 Normal termination of Gaussian 09 at Sun May 14 02:26:58 2017.
