 Default is to use a total of   4 processors:
                                4 via shared-memory
                                1 via Linda
 Entering Link 1 = d:\study\G09W\l1.exe PID=      7628.
  
 Copyright (c) 1988,1990,1992,1993,1995,1998,2003,2009,2013,
            Gaussian, Inc.  All Rights Reserved.
  
 This is part of the Gaussian(R) 09 program.  It is based on
 the Gaussian(R) 03 system (copyright 2003, Gaussian, Inc.),
 the Gaussian(R) 98 system (copyright 1998, Gaussian, Inc.),
 the Gaussian(R) 94 system (copyright 1995, Gaussian, Inc.),
 the Gaussian 92(TM) system (copyright 1992, Gaussian, Inc.),
 the Gaussian 90(TM) system (copyright 1990, Gaussian, Inc.),
 the Gaussian 88(TM) system (copyright 1988, Gaussian, Inc.),
 the Gaussian 86(TM) system (copyright 1986, Carnegie Mellon
 University), and the Gaussian 82(TM) system (copyright 1983,
 Carnegie Mellon University). Gaussian is a federally registered
 trademark of Gaussian, Inc.
  
 This software contains proprietary and confidential information,
 including trade secrets, belonging to Gaussian, Inc.
  
 This software is provided under written license and may be
 used, copied, transmitted, or stored only in accord with that
 written license.
  
 The following legend is applicable only to US Government
 contracts under FAR:
  
                    RESTRICTED RIGHTS LEGEND
  
 Use, reproduction and disclosure by the US Government is
 subject to restrictions as set forth in subparagraphs (a)
 and (c) of the Commercial Computer Software - Restricted
 Rights clause in FAR 52.227-19.
  
 Gaussian, Inc.
 340 Quinnipiac St., Bldg. 40, Wallingford CT 06492
  
  
 ---------------------------------------------------------------
 Warning -- This program may not be used in any manner that
 competes with the business of Gaussian, Inc. or will provide
 assistance to any competitor of Gaussian, Inc.  The licensee
 of this program is prohibited from giving any competitor of
 Gaussian, Inc. access to this program.  By using this program,
 the user acknowledges that Gaussian, Inc. is engaged in the
 business of creating and licensing software in the field of
 computational chemistry and represents and warrants to the
 licensee that it is not a competitor of Gaussian, Inc. and that
 it will not use this program in any manner prohibited above.
 ---------------------------------------------------------------
  

 Cite this work as:
 Gaussian 09, Revision D.01,
 M. J. Frisch, G. W. Trucks, H. B. Schlegel, G. E. Scuseria, 
 M. A. Robb, J. R. Cheeseman, G. Scalmani, V. Barone, B. Mennucci, 
 G. A. Petersson, H. Nakatsuji, M. Caricato, X. Li, H. P. Hratchian, 
 A. F. Izmaylov, J. Bloino, G. Zheng, J. L. Sonnenberg, M. Hada, 
 M. Ehara, K. Toyota, R. Fukuda, J. Hasegawa, M. Ishida, T. Nakajima, 
 Y. Honda, O. Kitao, H. Nakai, T. Vreven, J. A. Montgomery, Jr., 
 J. E. Peralta, F. Ogliaro, M. Bearpark, J. J. Heyd, E. Brothers, 
 K. N. Kudin, V. N. Staroverov, T. Keith, R. Kobayashi, J. Normand, 
 K. Raghavachari, A. Rendell, J. C. Burant, S. S. Iyengar, J. Tomasi, 
 M. Cossi, N. Rega, J. M. Millam, M. Klene, J. E. Knox, J. B. Cross, 
 V. Bakken, C. Adamo, J. Jaramillo, R. Gomperts, R. E. Stratmann, 
 O. Yazyev, A. J. Austin, R. Cammi, C. Pomelli, J. W. Ochterski, 
 R. L. Martin, K. Morokuma, V. G. Zakrzewski, G. A. Voth, 
 P. Salvador, J. J. Dannenberg, S. Dapprich, A. D. Daniels, 
 O. Farkas, J. B. Foresman, J. V. Ortiz, J. Cioslowski, 
 and D. J. Fox, Gaussian, Inc., Wallingford CT, 2013.
 
 ******************************************
 Gaussian 09:  IA32W-G09RevD.01 24-Apr-2013
                14-May-2017 
 ******************************************
 %chk=C:\gtest\phenanthrene.chk
 -------------------------
 # b3lyp/3-21g pop=nboread
 -------------------------
 1/38=1/1;
 2/12=2,17=6,18=5,40=1/2;
 3/5=5,11=2,16=1,25=1,30=1,74=-5/1,2,3;
 4//1;
 5/5=2,38=5/2;
 6/7=2,8=2,9=2,10=2,28=1,40=2/1,7;
 99/5=1,9=1/99;
 -----------------
 b3lyp/3-21g opted
 -----------------
 Symbolic Z-matrix:
 Charge =  0 Multiplicity = 1
 C                     0.        3.56062  -0.29723 
 C                     0.        2.83933   0.87979 
 C                     0.        1.42361   0.86772 
 C                     0.        0.72986  -0.3807 
 C                     0.        1.49924  -1.56932 
 C                     0.        2.88152  -1.53149 
 C                     0.        0.67927   2.09718 
 C                     0.       -0.72986  -0.3807 
 C                     0.       -1.42361   0.86772 
 C                     0.       -0.67927   2.09718 
 C                     0.       -2.83933   0.87979 
 H                     0.       -3.34928   1.83745 
 C                     0.       -3.56062  -0.29723 
 C                     0.       -2.88152  -1.53149 
 C                     0.       -1.49924  -1.56932 
 H                     0.        1.23356   3.02968 
 H                     0.        4.64401  -0.27588 
 H                     0.        3.34928   1.83745 
 H                     0.        1.00204  -2.53051 
 H                     0.        3.44644  -2.45643 
 H                     0.       -1.23356   3.02968 
 H                     0.       -4.64401  -0.27588 
 H                     0.       -3.44644  -2.45643 
 H                     0.       -1.00204  -2.53051 
 
                          Input orientation:                          
 ---------------------------------------------------------------------
 Center     Atomic      Atomic             Coordinates (Angstroms)
 Number     Number       Type             X           Y           Z
 ---------------------------------------------------------------------
      1          6           0        0.000000    3.560617   -0.297229
      2          6           0        0.000000    2.839325    0.879793
      3          6           0        0.000000    1.423614    0.867715
      4          6           0        0.000000    0.729862   -0.380700
      5          6           0        0.000000    1.499244   -1.569318
      6          6           0        0.000000    2.881518   -1.531490
      7          6           0        0.000000    0.679265    2.097177
      8          6           0        0.000000   -0.729862   -0.380700
      9          6           0        0.000000   -1.423614    0.867715
     10          6           0        0.000000   -0.679265    2.097177
     11          6           0        0.000000   -2.839325    0.879793
     12          1           0        0.000000   -3.349278    1.837449
     13          6           0        0.000000   -3.560617   -0.297229
     14          6           0        0.000000   -2.881518   -1.531490
     15          6           0        0.000000   -1.499244   -1.569318
     16          1           0        0.000000    1.233564    3.029684
     17          1           0        0.000000    4.644007   -0.275882
     18          1           0        0.000000    3.349278    1.837449
     19          1           0        0.000000    1.002038   -2.530513
     20          1           0        0.000000    3.446437   -2.456427
     21          1           0        0.000000   -1.233564    3.029684
     22          1           0        0.000000   -4.644007   -0.275882
     23          1           0        0.000000   -3.446437   -2.456427
     24          1           0        0.000000   -1.002038   -2.530513
 ---------------------------------------------------------------------
                    Distance matrix (angstroms):
                    1          2          3          4          5
     1  C    0.000000
     2  C    1.380450   0.000000
     3  C    2.433901   1.415763   0.000000
     4  C    2.831985   2.457372   1.428227   0.000000
     5  C    2.422286   2.791767   2.438206   1.415896   0.000000
     6  C    1.408750   2.411652   2.807431   2.440070   1.382792
     7  C    3.746381   2.479492   1.437231   2.478394   3.757067
     8  C    4.291291   3.785226   2.489176   1.459724   2.526208
     9  C    5.118560   4.262956   2.847228   2.489176   3.805552
    10  C    4.869269   3.723238   2.435914   2.850529   4.264867
    11  C    6.507276   5.678650   4.262956   3.785226   4.982101
    12  H    7.232116   6.262261   4.870409   4.643228   5.925726
    13  C    7.121234   6.507276   5.118560   4.291291   5.217318
    14  C    6.559307   6.208247   4.928524   3.790301   4.380925
    15  C    5.217318   4.982101   3.805552   2.526208   2.998488
    16  H    4.059991   2.683375   2.170306   3.447381   4.606670
    17  H    1.083600   2.143003   3.417418   3.915548   3.400369
    18  H    2.145114   1.084969   2.156053   3.432423   3.876685
    19  H    3.396157   3.873733   3.424278   2.166974   1.082178
    20  H    2.162215   3.391010   3.891238   3.418833   2.139748
    21  H    5.835454   4.605481   3.425596   3.935195   5.349678
    22  H    8.204652   7.572043   6.174450   5.374891   6.277938
    23  H    7.332185   7.116261   5.896382   4.663702   5.024612
    24  H    5.079899   5.136755   4.175134   2.760647   2.679610
                    6          7          8          9         10
     6  C    0.000000
     7  C    4.244660   0.000000
     8  C    3.790301   2.850529   0.000000
     9  C    4.928524   2.435914   1.428227   0.000000
    10  C    5.083935   1.358530   2.478394   1.437231   0.000000
    11  C    6.208247   3.723238   2.457372   1.415763   2.479492
    12  H    7.083260   4.036907   3.432423   2.156053   2.682616
    13  C    6.559307   4.869269   2.831985   2.433901   3.746381
    14  C    5.763036   5.083935   2.440070   2.807431   4.244660
    15  C    4.380925   4.264867   1.415896   2.438206   3.757067
    16  H    4.849749   1.084812   3.935195   3.425596   2.128024
    17  H    2.164005   4.620670   5.374891   6.174450   5.828262
    18  H    3.401257   2.682616   4.643228   4.870409   4.036907
    19  H    2.128495   4.638933   2.760647   4.175134   4.923646
    20  H    1.083809   5.328466   4.663702   5.896382   6.144650
    21  H    6.143143   2.128024   3.447381   2.170306   1.084812
    22  H    7.629553   5.828262   3.915548   3.417418   4.620670
    23  H    6.395195   6.144650   3.418833   3.891238   5.328466
    24  H    4.009994   4.923646   2.166974   3.424278   4.638933
                   11         12         13         14         15
    11  C    0.000000
    12  H    1.084969   0.000000
    13  C    1.380450   2.145114   0.000000
    14  C    2.411652   3.401257   1.408750   0.000000
    15  C    2.791767   3.876685   2.422286   1.382792   0.000000
    16  H    4.605481   4.735384   5.835454   6.143143   5.349678
    17  H    7.572043   8.267936   8.204652   7.629553   6.277938
    18  H    6.262261   6.698556   7.232116   7.083260   5.925726
    19  H    5.136755   6.165472   5.079899   4.009994   2.679610
    20  H    7.116261   8.038601   7.332185   6.395195   5.024612
    21  H    2.683375   2.428512   4.059991   4.849749   4.606670
    22  H    2.143003   2.478405   1.083600   2.164005   3.400369
    23  H    3.391010   4.294975   2.162215   1.083809   2.139748
    24  H    3.873733   4.958692   3.396157   2.128495   1.082178
                   16         17         18         19         20
    16  H    0.000000
    17  H    4.749515   0.000000
    18  H    2.428512   2.478405   0.000000
    19  H    5.565015   4.283375   4.958692   0.000000
    20  H    5.915591   2.487760   4.294975   2.445521   0.000000
    21  H    2.467128   6.743338   4.735384   5.992805   7.211090
    22  H    6.743338   9.288014   8.267936   6.079571   8.379144
    23  H    7.211090   8.379144   8.038601   4.449092   6.892874
    24  H    5.992805   6.079571   6.165472   2.004076   4.449092
                   21         22         23         24
    21  H    0.000000
    22  H    4.749515   0.000000
    23  H    5.915591   2.487760   0.000000
    24  H    5.565015   4.283375   2.445521   0.000000
 Stoichiometry    C14H10
 Framework group  C2V[SGV(C14H10)]
 Deg. of freedom    23
 Full point group                 C2V     NOp   4
 Largest Abelian subgroup         C2V     NOp   4
 Largest concise Abelian subgroup C2      NOp   2
                         Standard orientation:                         
 ---------------------------------------------------------------------
 Center     Atomic      Atomic             Coordinates (Angstroms)
 Number     Number       Type             X           Y           Z
 ---------------------------------------------------------------------
      1          6           0        0.000000    3.560617   -0.297229
      2          6           0        0.000000    2.839325    0.879793
      3          6           0        0.000000    1.423614    0.867715
      4          6           0        0.000000    0.729862   -0.380700
      5          6           0        0.000000    1.499244   -1.569318
      6          6           0        0.000000    2.881518   -1.531490
      7          6           0        0.000000    0.679265    2.097177
      8          6           0        0.000000   -0.729862   -0.380700
      9          6           0        0.000000   -1.423614    0.867715
     10          6           0        0.000000   -0.679265    2.097177
     11          6           0        0.000000   -2.839325    0.879793
     12          1           0        0.000000   -3.349278    1.837449
     13          6           0        0.000000   -3.560617   -0.297229
     14          6           0        0.000000   -2.881518   -1.531490
     15          6           0        0.000000   -1.499244   -1.569318
     16          1           0        0.000000    1.233564    3.029684
     17          1           0        0.000000    4.644007   -0.275882
     18          1           0        0.000000    3.349278    1.837449
     19          1           0        0.000000    1.002038   -2.530513
     20          1           0        0.000000    3.446437   -2.456427
     21          1           0        0.000000   -1.233564    3.029684
     22          1           0        0.000000   -4.644007   -0.275882
     23          1           0        0.000000   -3.446437   -2.456427
     24          1           0        0.000000   -1.002038   -2.530513
 ---------------------------------------------------------------------
 Rotational constants (GHZ):      1.6108965      0.5501689      0.4101057
 Standard basis: 3-21G (6D, 7F)
 There are    59 symmetry adapted cartesian basis functions of A1  symmetry.
 There are    14 symmetry adapted cartesian basis functions of A2  symmetry.
 There are    14 symmetry adapted cartesian basis functions of B1  symmetry.
 There are    59 symmetry adapted cartesian basis functions of B2  symmetry.
 There are    59 symmetry adapted basis functions of A1  symmetry.
 There are    14 symmetry adapted basis functions of A2  symmetry.
 There are    14 symmetry adapted basis functions of B1  symmetry.
 There are    59 symmetry adapted basis functions of B2  symmetry.
   146 basis functions,   240 primitive gaussians,   146 cartesian basis functions
    47 alpha electrons       47 beta electrons
       nuclear repulsion energy       774.1919948922 Hartrees.
 NAtoms=   24 NActive=   24 NUniq=   12 SFac= 4.00D+00 NAtFMM=   60 NAOKFM=F Big=F
 Integral buffers will be    262144 words long.
 Raffenetti 2 integral format.
 Two-electron integral symmetry is turned on.
 One-electron integrals computed using PRISM.
 NBasis=   146 RedAO= T EigKep=  8.03D-04  NBF=    59    14    14    59
 NBsUse=   146 1.00D-06 EigRej= -1.00D+00 NBFU=    59    14    14    59
 ExpMin= 1.83D-01 ExpMax= 1.72D+02 ExpMxC= 1.72D+02 IAcc=1 IRadAn=         1 AccDes= 0.00D+00
 Harris functional with IExCor=  402 and IRadAn=       1 diagonalized for initial guess.
 HarFok:  IExCor=  402 AccDes= 0.00D+00 IRadAn=         1 IDoV= 1 UseB2=F ITyADJ=14
 ICtDFT=  3500011 ScaDFX=  1.000000  1.000000  1.000000  1.000000
 FoFCou: FMM=F IPFlag=           0 FMFlag=      100000 FMFlg1=           0
         NFxFlg=           0 DoJE=T BraDBF=F KetDBF=T FulRan=T
         wScrn=  0.000000 ICntrl=     500 IOpCl=  0 I1Cent=   200000004 NGrid=           0
         NMat0=    1 NMatS0=      1 NMatT0=    0 NMatD0=    1 NMtDS0=    0 NMtDT0=    0
 Petite list used in FoFCou.
 Initial guess orbital symmetries:
       Occupied  (B2) (A1) (B2) (B2) (A1) (A1) (B2) (A1) (B2) (A1)
                 (B2) (A1) (B2) (A1) (A1) (B2) (A1) (A1) (B2) (B2)
                 (A1) (A1) (B2) (A1) (B2) (A1) (B2) (A1) (B2) (A1)
                 (B2) (A1) (A1) (B2) (A1) (B2) (B1) (B2) (A1) (A2)
                 (A1) (B2) (B1) (B1) (A2) (A2) (B1)
       Virtual   (A2) (B1) (B1) (A2) (A2) (B1) (A1) (A1) (B2) (A1)
                 (A2) (B2) (A1) (B2) (A1) (B2) (A1) (B2) (B2) (A1)
                 (B2) (A1) (A1) (A1) (B2) (B2) (B2) (B2) (B2) (A1)
                 (A1) (B2) (B2) (A1) (B1) (A1) (A1) (B2) (A2) (B2)
                 (B1) (A1) (B2) (A1) (B1) (A2) (B2) (A1) (B1) (A2)
                 (A1) (B1) (B2) (B1) (A2) (A1) (A2) (A2) (A1) (B2)
                 (B1) (B2) (A1) (B2) (A1) (B2) (A2) (A1) (B2) (A1)
                 (B2) (A1) (B2) (B2) (A1) (A1) (B2) (B2) (A1) (B2)
                 (A1) (B2) (A1) (A1) (B2) (B2) (A1) (B2) (A1) (B2)
                 (A1) (B2) (A1) (A1) (B2) (B2) (B2) (A1) (B2)
 The electronic state of the initial guess is 1-A1.
 Keep R1 ints in memory in symmetry-blocked form, NReq=74205643.
 Requested convergence on RMS density matrix=1.00D-08 within 128 cycles.
 Requested convergence on MAX density matrix=1.00D-06.
 Requested convergence on             energy=1.00D-06.
 No special actions if energy rises.
 Integral accuracy reduced to 1.0D-05 until final iterations.
 Initial convergence to 1.0D-05 achieved.  Increase integral accuracy.
 SCF Done:  E(RB3LYP) =  -536.569057610     A.U. after   14 cycles
            NFock= 14  Conv=0.75D-08     -V/T= 2.0087

 **********************************************************************

            Population analysis using the SCF density.

 **********************************************************************

 Orbital symmetries:
       Occupied  (B2) (A1) (B2) (A1) (B2) (B2) (A1) (B2) (A1) (A1)
                 (B2) (A1) (B2) (A1) (A1) (B2) (A1) (A1) (B2) (B2)
                 (A1) (A1) (B2) (A1) (B2) (A1) (B2) (A1) (B2) (A1)
                 (B2) (A1) (A1) (B2) (A1) (B1) (B2) (B2) (A1) (A2)
                 (A1) (B2) (B1) (B1) (A2) (A2) (B1)
       Virtual   (A2) (B1) (B1) (A2) (A2) (A1) (A1) (B2) (B1) (A1)
                 (B2) (A1) (B2) (A1) (B2) (A2) (A1) (B2) (B2) (A1)
                 (B2) (A1) (A1) (A1) (B2) (B2) (B2) (B2) (B2) (A1)
                 (A1) (B2) (A1) (B2) (B1) (A1) (A2) (A1) (B2) (B1)
                 (B2) (A1) (A1) (B1) (B2) (A2) (B2) (A1) (B1) (A2)
                 (B1) (A1) (B1) (B2) (A2) (A1) (A2) (A2) (B1) (A1)
                 (B2) (B2) (A1) (B2) (A2) (B2) (A1) (A1) (B2) (A1)
                 (B2) (A1) (B2) (B2) (A1) (A1) (B2) (B2) (A1) (B2)
                 (A1) (B2) (A1) (A1) (B2) (B2) (A1) (B2) (A1) (B2)
                 (A1) (B2) (A1) (A1) (B2) (B2) (B2) (A1) (B2)
 The electronic state is 1-A1.
 Alpha  occ. eigenvalues --  -10.14560 -10.14454 -10.14191 -10.14177 -10.13219
 Alpha  occ. eigenvalues --  -10.13209 -10.13207 -10.13147 -10.13145 -10.13087
 Alpha  occ. eigenvalues --  -10.13083 -10.13076 -10.12970 -10.12962  -0.88720
 Alpha  occ. eigenvalues --   -0.85488  -0.81474  -0.78069  -0.76055  -0.72927
 Alpha  occ. eigenvalues --   -0.72382  -0.63921  -0.63207  -0.61846  -0.58975
 Alpha  occ. eigenvalues --   -0.53881  -0.53864  -0.50512  -0.48612  -0.48235
 Alpha  occ. eigenvalues --   -0.44587  -0.44056  -0.43481  -0.43086  -0.41928
 Alpha  occ. eigenvalues --   -0.40513  -0.39920  -0.37048  -0.36680  -0.36301
 Alpha  occ. eigenvalues --   -0.34020  -0.32982  -0.31803  -0.28730  -0.26552
 Alpha  occ. eigenvalues --   -0.22703  -0.21573
 Alpha virt. eigenvalues --   -0.03745  -0.02988   0.01108   0.03968   0.08369
 Alpha virt. eigenvalues --    0.10620   0.11939   0.12139   0.14949   0.16543
 Alpha virt. eigenvalues --    0.16910   0.18064   0.19351   0.20420   0.21063
 Alpha virt. eigenvalues --    0.22693   0.25287   0.26133   0.26705   0.29497
 Alpha virt. eigenvalues --    0.30749   0.32449   0.32911   0.34950   0.35156
 Alpha virt. eigenvalues --    0.40179   0.41562   0.48365   0.51720   0.54715
 Alpha virt. eigenvalues --    0.56868   0.62306   0.62398   0.65553   0.67474
 Alpha virt. eigenvalues --    0.68008   0.70090   0.70324   0.70648   0.72482
 Alpha virt. eigenvalues --    0.73220   0.74501   0.75792   0.76087   0.76554
 Alpha virt. eigenvalues --    0.76660   0.79937   0.80470   0.80802   0.80823
 Alpha virt. eigenvalues --    0.82479   0.82774   0.85143   0.85692   0.85786
 Alpha virt. eigenvalues --    0.89235   0.89623   0.90937   0.95183   0.97321
 Alpha virt. eigenvalues --    0.97427   0.98522   1.01845   1.02943   1.05248
 Alpha virt. eigenvalues --    1.06783   1.06967   1.09345   1.17594   1.19146
 Alpha virt. eigenvalues --    1.20319   1.25130   1.27230   1.30591   1.34240
 Alpha virt. eigenvalues --    1.35344   1.36331   1.43590   1.43943   1.46002
 Alpha virt. eigenvalues --    1.46504   1.49303   1.51050   1.52495   1.52823
 Alpha virt. eigenvalues --    1.53386   1.54898   1.57556   1.59095   1.75364
 Alpha virt. eigenvalues --    1.76109   1.84607   1.91602   1.92207   1.95805
 Alpha virt. eigenvalues --    1.99753   2.43509   2.46298   2.52345
          Condensed to atoms (all electrons):
               1          2          3          4          5          6
     1  C    5.133210   0.474910  -0.082541  -0.016617  -0.085104   0.440544
     2  C    0.474910   5.153493   0.435470  -0.062592  -0.025768  -0.086828
     3  C   -0.082541   0.435470   5.134152   0.442427  -0.070387  -0.018867
     4  C   -0.016617  -0.062592   0.442427   5.100973   0.450741  -0.078295
     5  C   -0.085104  -0.025768  -0.070387   0.450741   5.157609   0.472991
     6  C    0.440544  -0.086828  -0.018867  -0.078295   0.472991   5.133546
     7  C    0.003368  -0.064470   0.406482  -0.064443   0.003907   0.000149
     8  C    0.000122   0.003783  -0.065578   0.408842  -0.061122   0.003447
     9  C    0.000006   0.000173  -0.013914  -0.065578   0.003016  -0.000086
    10  C   -0.000148   0.003401  -0.084346  -0.016086   0.000060   0.000007
    11  C    0.000000   0.000000   0.000173   0.003783  -0.000070   0.000000
    12  H    0.000000   0.000000   0.000006  -0.000073   0.000000   0.000000
    13  C    0.000000   0.000000   0.000006   0.000122   0.000000   0.000000
    14  C    0.000000   0.000000  -0.000086   0.003447   0.000195  -0.000001
    15  C    0.000000  -0.000070   0.003016  -0.061122  -0.006668   0.000195
    16  H    0.000104  -0.002319  -0.045664   0.003342  -0.000077   0.000005
    17  H    0.389198  -0.039648   0.004039  -0.000124   0.003892  -0.040070
    18  H   -0.037570   0.390297  -0.045711   0.003460  -0.000103   0.003780
    19  H    0.003689  -0.000081   0.003571  -0.040940   0.385454  -0.039643
    20  H   -0.040247   0.003958  -0.000097   0.003925  -0.040524   0.389477
    21  H    0.000000  -0.000070   0.003878  -0.000027   0.000002   0.000000
    22  H    0.000000   0.000000   0.000000   0.000000   0.000000   0.000000
    23  H    0.000000   0.000000   0.000000  -0.000064   0.000003   0.000000
    24  H    0.000003  -0.000002   0.000083  -0.006053   0.002249  -0.000034
               7          8          9         10         11         12
     1  C    0.003368   0.000122   0.000006  -0.000148   0.000000   0.000000
     2  C   -0.064470   0.003783   0.000173   0.003401   0.000000   0.000000
     3  C    0.406482  -0.065578  -0.013914  -0.084346   0.000173   0.000006
     4  C   -0.064443   0.408842  -0.065578  -0.016086   0.003783  -0.000073
     5  C    0.003907  -0.061122   0.003016   0.000060  -0.000070   0.000000
     6  C    0.000149   0.003447  -0.000086   0.000007   0.000000   0.000000
     7  C    5.142932  -0.016086  -0.084346   0.499098   0.003401   0.000130
     8  C   -0.016086   5.100973   0.442427  -0.064443  -0.062592   0.003460
     9  C   -0.084346   0.442427   5.134152   0.406482   0.435470  -0.045711
    10  C    0.499098  -0.064443   0.406482   5.142932  -0.064470  -0.002689
    11  C    0.003401  -0.062592   0.435470  -0.064470   5.153493   0.390297
    12  H    0.000130   0.003460  -0.045711  -0.002689   0.390297   0.504232
    13  C   -0.000148  -0.016617  -0.082541   0.003368   0.474910  -0.037570
    14  C    0.000007  -0.078295  -0.018867   0.000149  -0.086828   0.003780
    15  C    0.000060   0.450741  -0.070387   0.003907  -0.025768  -0.000103
    16  H    0.388893  -0.000027   0.003878  -0.037129  -0.000070  -0.000002
    17  H   -0.000061   0.000000   0.000000   0.000000   0.000000   0.000000
    18  H   -0.002689  -0.000073   0.000006   0.000130   0.000000   0.000000
    19  H   -0.000069  -0.006053   0.000083   0.000001  -0.000002   0.000000
    20  H    0.000000  -0.000064   0.000000   0.000000   0.000000   0.000000
    21  H   -0.037129   0.003342  -0.045664   0.388893  -0.002319   0.004053
    22  H    0.000000  -0.000124   0.004039  -0.000061  -0.039648  -0.003850
    23  H    0.000000   0.003925  -0.000097   0.000000   0.003958  -0.000053
    24  H    0.000001  -0.040940   0.003571  -0.000069  -0.000081   0.000003
              13         14         15         16         17         18
     1  C    0.000000   0.000000   0.000000   0.000104   0.389198  -0.037570
     2  C    0.000000   0.000000  -0.000070  -0.002319  -0.039648   0.390297
     3  C    0.000006  -0.000086   0.003016  -0.045664   0.004039  -0.045711
     4  C    0.000122   0.003447  -0.061122   0.003342  -0.000124   0.003460
     5  C    0.000000   0.000195  -0.006668  -0.000077   0.003892  -0.000103
     6  C    0.000000  -0.000001   0.000195   0.000005  -0.040070   0.003780
     7  C   -0.000148   0.000007   0.000060   0.388893  -0.000061  -0.002689
     8  C   -0.016617  -0.078295   0.450741  -0.000027   0.000000  -0.000073
     9  C   -0.082541  -0.018867  -0.070387   0.003878   0.000000   0.000006
    10  C    0.003368   0.000149   0.003907  -0.037129   0.000000   0.000130
    11  C    0.474910  -0.086828  -0.025768  -0.000070   0.000000   0.000000
    12  H   -0.037570   0.003780  -0.000103  -0.000002   0.000000   0.000000
    13  C    5.133210   0.440544  -0.085104   0.000000   0.000000   0.000000
    14  C    0.440544   5.133546   0.472991   0.000000   0.000000   0.000000
    15  C   -0.085104   0.472991   5.157609   0.000002   0.000000   0.000000
    16  H    0.000000   0.000000   0.000002   0.505042  -0.000002   0.004053
    17  H    0.000000   0.000000   0.000000  -0.000002   0.502925  -0.003850
    18  H    0.000000   0.000000   0.000000   0.004053  -0.003850   0.504232
    19  H    0.000003  -0.000034   0.002249   0.000001  -0.000053   0.000003
    20  H    0.000000   0.000000   0.000003   0.000000  -0.003551  -0.000053
    21  H    0.000104   0.000005  -0.000077  -0.004170   0.000000  -0.000002
    22  H    0.389198  -0.040070   0.003892   0.000000   0.000000   0.000000
    23  H   -0.040247   0.389477  -0.040524   0.000000   0.000000   0.000000
    24  H    0.003689  -0.039643   0.385454   0.000000   0.000000   0.000000
              19         20         21         22         23         24
     1  C    0.003689  -0.040247   0.000000   0.000000   0.000000   0.000003
     2  C   -0.000081   0.003958  -0.000070   0.000000   0.000000  -0.000002
     3  C    0.003571  -0.000097   0.003878   0.000000   0.000000   0.000083
     4  C   -0.040940   0.003925  -0.000027   0.000000  -0.000064  -0.006053
     5  C    0.385454  -0.040524   0.000002   0.000000   0.000003   0.002249
     6  C   -0.039643   0.389477   0.000000   0.000000   0.000000  -0.000034
     7  C   -0.000069   0.000000  -0.037129   0.000000   0.000000   0.000001
     8  C   -0.006053  -0.000064   0.003342  -0.000124   0.003925  -0.040940
     9  C    0.000083   0.000000  -0.045664   0.004039  -0.000097   0.003571
    10  C    0.000001   0.000000   0.388893  -0.000061   0.000000  -0.000069
    11  C   -0.000002   0.000000  -0.002319  -0.039648   0.003958  -0.000081
    12  H    0.000000   0.000000   0.004053  -0.003850  -0.000053   0.000003
    13  C    0.000003   0.000000   0.000104   0.389198  -0.040247   0.003689
    14  C   -0.000034   0.000000   0.000005  -0.040070   0.389477  -0.039643
    15  C    0.002249   0.000003  -0.000077   0.003892  -0.040524   0.385454
    16  H    0.000001   0.000000  -0.004170   0.000000   0.000000   0.000000
    17  H   -0.000053  -0.003551   0.000000   0.000000   0.000000   0.000000
    18  H    0.000003  -0.000053  -0.000002   0.000000   0.000000   0.000000
    19  H    0.498352  -0.003761   0.000000   0.000000  -0.000002   0.008969
    20  H   -0.003761   0.503407   0.000000   0.000000   0.000000  -0.000002
    21  H    0.000000   0.000000   0.505042  -0.000002   0.000000   0.000001
    22  H    0.000000   0.000000  -0.000002   0.502925  -0.003551  -0.000053
    23  H   -0.000002   0.000000   0.000000  -0.003551   0.503407  -0.003761
    24  H    0.008969  -0.000002   0.000001  -0.000053  -0.003761   0.498352
 Mulliken charges:
               1
     1  C   -0.182928
     2  C   -0.183636
     3  C   -0.006111
     4  C   -0.009047
     5  C   -0.190296
     6  C   -0.180317
     7  C   -0.178991
     8  C   -0.009047
     9  C   -0.006111
    10  C   -0.178991
    11  C   -0.183636
    12  H    0.184090
    13  C   -0.182928
    14  C   -0.180317
    15  C   -0.190296
    16  H    0.184138
    17  H    0.187304
    18  H    0.184090
    19  H    0.188263
    20  H    0.187529
    21  H    0.184138
    22  H    0.187304
    23  H    0.187529
    24  H    0.188263
 Sum of Mulliken charges =   0.00000
 Mulliken charges with hydrogens summed into heavy atoms:
               1
     1  C    0.004376
     2  C    0.000455
     3  C   -0.006111
     4  C   -0.009047
     5  C   -0.002033
     6  C    0.007213
     7  C    0.005148
     8  C   -0.009047
     9  C   -0.006111
    10  C    0.005148
    11  C    0.000455
    13  C    0.004376
    14  C    0.007213
    15  C   -0.002033
 Electronic spatial extent (au):  <R**2>=           2625.3828
 Charge=              0.0000 electrons
 Dipole moment (field-independent basis, Debye):
    X=              0.0000    Y=              0.0000    Z=             -0.0328  Tot=              0.0328
 Quadrupole moment (field-independent basis, Debye-Ang):
   XX=            -89.1366   YY=            -68.8165   ZZ=            -69.3907
   XY=              0.0000   XZ=              0.0000   YZ=              0.0000
 Traceless Quadrupole moment (field-independent basis, Debye-Ang):
   XX=            -13.3553   YY=              6.9648   ZZ=              6.3905
   XY=              0.0000   XZ=              0.0000   YZ=              0.0000
 Octapole moment (field-independent basis, Debye-Ang**2):
  XXX=              0.0000  YYY=              0.0000  ZZZ=             -0.3071  XYY=              0.0000
  XXY=              0.0000  XXZ=             -0.0061  XZZ=              0.0000  YZZ=              0.0000
  YYZ=             -0.7517  XYZ=              0.0000
 Hexadecapole moment (field-independent basis, Debye-Ang**3):
 XXXX=            -93.0784 YYYY=          -2288.8477 ZZZZ=           -859.0547 XXXY=              0.0000
 XXXZ=              0.0000 YYYX=              0.0000 YYYZ=              0.0000 ZZZX=              0.0000
 ZZZY=              0.0000 XXYY=           -503.2111 XXZZ=           -195.8379 YYZZ=           -522.2604
 XXYZ=              0.0000 YYXZ=              0.0000 ZZXY=              0.0000
 N-N= 7.741919948922D+02 E-N=-2.790178475158D+03  KE= 5.319330852781D+02
 Symmetry A1   KE= 2.608703975240D+02
 Symmetry A2   KE= 6.512052986791D+00
 Symmetry B1   KE= 8.361462073555D+00
 Symmetry B2   KE= 2.561891726938D+02
 ******************************Gaussian NBO Version 3.1******************************
             N A T U R A L   A T O M I C   O R B I T A L   A N D
          N A T U R A L   B O N D   O R B I T A L   A N A L Y S I S
 ******************************Gaussian NBO Version 3.1******************************

       /RESON  / : Allow strongly delocalized NBO set
       /AONAO  / : Print the AO to NAO transformation
       /DMNAO  / : Print the NAO density matrix

 Analyzing the SCF density

 Job title: b3lyp/3-21g opted                                               

 Storage needed:     65846 in NPA,     86287 in NBO ( 183499078 available)


 NATURAL POPULATIONS:  Natural atomic orbital occupancies 
                                                          
   NAO  Atom  No  lang   Type(AO)    Occupancy      Energy
 ----------------------------------------------------------
     1    C    1  S      Cor( 1S)     1.99858      -9.96615
     2    C    1  S      Val( 2S)     0.94657      -0.17530
     3    C    1  S      Ryd( 3S)     0.00064       1.63986
     4    C    1  px     Val( 2p)     0.99991      -0.10884
     5    C    1  px     Ryd( 3p)     0.00060       0.79442
     6    C    1  py     Val( 2p)     1.20980      -0.06126
     7    C    1  py     Ryd( 3p)     0.00500       1.24314
     8    C    1  pz     Val( 2p)     1.07303      -0.04884
     9    C    1  pz     Ryd( 3p)     0.00497       0.84045

    10    C    2  S      Cor( 1S)     1.99860      -9.96448
    11    C    2  S      Val( 2S)     0.93475      -0.16704
    12    C    2  S      Ryd( 3S)     0.00068       1.66364
    13    C    2  px     Val( 2p)     0.99765      -0.10930
    14    C    2  px     Ryd( 3p)     0.00047       0.79593
    15    C    2  py     Val( 2p)     1.08419      -0.04566
    16    C    2  py     Ryd( 3p)     0.00468       0.93194
    17    C    2  pz     Val( 2p)     1.18437      -0.06204
    18    C    2  pz     Ryd( 3p)     0.00510       1.19114

    19    C    3  S      Cor( 1S)     1.99866      -9.96844
    20    C    3  S      Val( 2S)     0.85302      -0.14327
    21    C    3  S      Ryd( 3S)     0.00037       1.69938
    22    C    3  px     Val( 2p)     1.00013      -0.10517
    23    C    3  px     Ryd( 3p)     0.00015       0.87255
    24    C    3  py     Val( 2p)     1.10602      -0.06167
    25    C    3  py     Ryd( 3p)     0.00516       1.34895
    26    C    3  pz     Val( 2p)     1.09222      -0.05629
    27    C    3  pz     Ryd( 3p)     0.00523       1.32192

    28    C    4  S      Cor( 1S)     1.99871      -9.97122
    29    C    4  S      Val( 2S)     0.84475      -0.13861
    30    C    4  S      Ryd( 3S)     0.00038       1.73012
    31    C    4  px     Val( 2p)     1.00012      -0.10557
    32    C    4  px     Ryd( 3p)     0.00016       0.87876
    33    C    4  py     Val( 2p)     1.08160      -0.05068
    34    C    4  py     Ryd( 3p)     0.00500       1.38097
    35    C    4  pz     Val( 2p)     1.09746      -0.05675
    36    C    4  pz     Ryd( 3p)     0.00533       1.36070

    37    C    5  S      Cor( 1S)     1.99861      -9.96504
    38    C    5  S      Val( 2S)     0.93045      -0.16561
    39    C    5  S      Ryd( 3S)     0.00064       1.66929
    40    C    5  px     Val( 2p)     0.99906      -0.10997
    41    C    5  px     Ryd( 3p)     0.00038       0.79995
    42    C    5  py     Val( 2p)     1.10704      -0.05500
    43    C    5  py     Ryd( 3p)     0.00432       0.99954
    44    C    5  pz     Val( 2p)     1.16451      -0.05287
    45    C    5  pz     Ryd( 3p)     0.00484       1.18350

    46    C    6  S      Cor( 1S)     1.99859      -9.96701
    47    C    6  S      Val( 2S)     0.94667      -0.17616
    48    C    6  S      Ryd( 3S)     0.00067       1.63844
    49    C    6  px     Val( 2p)     1.00057      -0.10913
    50    C    6  px     Ryd( 3p)     0.00060       0.79487
    51    C    6  py     Val( 2p)     1.11213      -0.05201
    52    C    6  py     Ryd( 3p)     0.00504       0.94382
    53    C    6  pz     Val( 2p)     1.16825      -0.05792
    54    C    6  pz     Ryd( 3p)     0.00501       1.14589

    55    C    7  S      Cor( 1S)     1.99859      -9.96451
    56    C    7  S      Val( 2S)     0.93285      -0.16438
    57    C    7  S      Ryd( 3S)     0.00072       1.67859
    58    C    7  px     Val( 2p)     0.99966      -0.10975
    59    C    7  px     Ryd( 3p)     0.00052       0.79625
    60    C    7  py     Val( 2p)     1.11814      -0.05398
    61    C    7  py     Ryd( 3p)     0.00506       0.97844
    62    C    7  pz     Val( 2p)     1.15012      -0.05399
    63    C    7  pz     Ryd( 3p)     0.00476       1.15303

    64    C    8  S      Cor( 1S)     1.99871      -9.97122
    65    C    8  S      Val( 2S)     0.84475      -0.13861
    66    C    8  S      Ryd( 3S)     0.00038       1.73012
    67    C    8  px     Val( 2p)     1.00012      -0.10557
    68    C    8  px     Ryd( 3p)     0.00016       0.87876
    69    C    8  py     Val( 2p)     1.08160      -0.05068
    70    C    8  py     Ryd( 3p)     0.00500       1.38097
    71    C    8  pz     Val( 2p)     1.09746      -0.05675
    72    C    8  pz     Ryd( 3p)     0.00533       1.36070

    73    C    9  S      Cor( 1S)     1.99866      -9.96844
    74    C    9  S      Val( 2S)     0.85302      -0.14327
    75    C    9  S      Ryd( 3S)     0.00037       1.69938
    76    C    9  px     Val( 2p)     1.00013      -0.10517
    77    C    9  px     Ryd( 3p)     0.00015       0.87255
    78    C    9  py     Val( 2p)     1.10602      -0.06167
    79    C    9  py     Ryd( 3p)     0.00516       1.34895
    80    C    9  pz     Val( 2p)     1.09222      -0.05629
    81    C    9  pz     Ryd( 3p)     0.00523       1.32192

    82    C   10  S      Cor( 1S)     1.99859      -9.96451
    83    C   10  S      Val( 2S)     0.93285      -0.16438
    84    C   10  S      Ryd( 3S)     0.00072       1.67859
    85    C   10  px     Val( 2p)     0.99966      -0.10975
    86    C   10  px     Ryd( 3p)     0.00052       0.79625
    87    C   10  py     Val( 2p)     1.11814      -0.05398
    88    C   10  py     Ryd( 3p)     0.00506       0.97844
    89    C   10  pz     Val( 2p)     1.15012      -0.05399
    90    C   10  pz     Ryd( 3p)     0.00476       1.15303

    91    C   11  S      Cor( 1S)     1.99860      -9.96448
    92    C   11  S      Val( 2S)     0.93475      -0.16704
    93    C   11  S      Ryd( 3S)     0.00068       1.66364
    94    C   11  px     Val( 2p)     0.99765      -0.10930
    95    C   11  px     Ryd( 3p)     0.00047       0.79593
    96    C   11  py     Val( 2p)     1.08419      -0.04566
    97    C   11  py     Ryd( 3p)     0.00468       0.93194
    98    C   11  pz     Val( 2p)     1.18437      -0.06204
    99    C   11  pz     Ryd( 3p)     0.00510       1.19114

   100    H   12  S      Val( 1S)     0.75953       0.08332
   101    H   12  S      Ryd( 2S)     0.00093       0.71434

   102    C   13  S      Cor( 1S)     1.99858      -9.96615
   103    C   13  S      Val( 2S)     0.94657      -0.17530
   104    C   13  S      Ryd( 3S)     0.00064       1.63986
   105    C   13  px     Val( 2p)     0.99991      -0.10884
   106    C   13  px     Ryd( 3p)     0.00060       0.79442
   107    C   13  py     Val( 2p)     1.20980      -0.06126
   108    C   13  py     Ryd( 3p)     0.00500       1.24314
   109    C   13  pz     Val( 2p)     1.07303      -0.04884
   110    C   13  pz     Ryd( 3p)     0.00497       0.84045

   111    C   14  S      Cor( 1S)     1.99859      -9.96701
   112    C   14  S      Val( 2S)     0.94667      -0.17616
   113    C   14  S      Ryd( 3S)     0.00067       1.63844
   114    C   14  px     Val( 2p)     1.00057      -0.10913
   115    C   14  px     Ryd( 3p)     0.00060       0.79487
   116    C   14  py     Val( 2p)     1.11213      -0.05201
   117    C   14  py     Ryd( 3p)     0.00504       0.94382
   118    C   14  pz     Val( 2p)     1.16825      -0.05792
   119    C   14  pz     Ryd( 3p)     0.00501       1.14589

   120    C   15  S      Cor( 1S)     1.99861      -9.96504
   121    C   15  S      Val( 2S)     0.93045      -0.16561
   122    C   15  S      Ryd( 3S)     0.00064       1.66929
   123    C   15  px     Val( 2p)     0.99906      -0.10997
   124    C   15  px     Ryd( 3p)     0.00038       0.79995
   125    C   15  py     Val( 2p)     1.10704      -0.05500
   126    C   15  py     Ryd( 3p)     0.00432       0.99954
   127    C   15  pz     Val( 2p)     1.16451      -0.05287
   128    C   15  pz     Ryd( 3p)     0.00484       1.18350

   129    H   16  S      Val( 1S)     0.75830       0.08300
   130    H   16  S      Ryd( 2S)     0.00094       0.71351

   131    H   17  S      Val( 1S)     0.75582       0.08942
   132    H   17  S      Ryd( 2S)     0.00077       0.69969

   133    H   18  S      Val( 1S)     0.75953       0.08332
   134    H   18  S      Ryd( 2S)     0.00093       0.71434

   135    H   19  S      Val( 1S)     0.76384       0.08511
   136    H   19  S      Ryd( 2S)     0.00089       0.77820

   137    H   20  S      Val( 1S)     0.75630       0.08902
   138    H   20  S      Ryd( 2S)     0.00079       0.70076

   139    H   21  S      Val( 1S)     0.75830       0.08300
   140    H   21  S      Ryd( 2S)     0.00094       0.71351

   141    H   22  S      Val( 1S)     0.75582       0.08942
   142    H   22  S      Ryd( 2S)     0.00077       0.69969

   143    H   23  S      Val( 1S)     0.75630       0.08902
   144    H   23  S      Ryd( 2S)     0.00079       0.70076

   145    H   24  S      Val( 1S)     0.76384       0.08511
   146    H   24  S      Ryd( 2S)     0.00089       0.77820

 WARNING:  1 low occupancy (<1.9990e) core orbital  found on  C    1
           1 low occupancy (<1.9990e) core orbital  found on  C    2
           1 low occupancy (<1.9990e) core orbital  found on  C    3
           1 low occupancy (<1.9990e) core orbital  found on  C    4
           1 low occupancy (<1.9990e) core orbital  found on  C    5
           1 low occupancy (<1.9990e) core orbital  found on  C    6
           1 low occupancy (<1.9990e) core orbital  found on  C    7
           1 low occupancy (<1.9990e) core orbital  found on  C    8
           1 low occupancy (<1.9990e) core orbital  found on  C    9
           1 low occupancy (<1.9990e) core orbital  found on  C   10
           1 low occupancy (<1.9990e) core orbital  found on  C   11
           1 low occupancy (<1.9990e) core orbital  found on  C   13
           1 low occupancy (<1.9990e) core orbital  found on  C   14
           1 low occupancy (<1.9990e) core orbital  found on  C   15


 Summary of Natural Population Analysis:                  
                                                          
                                       Natural Population 
                Natural  -----------------------------------------------
    Atom  No    Charge         Core      Valence    Rydberg      Total
 -----------------------------------------------------------------------
      C    1   -0.23910      1.99858     4.22931    0.01122     6.23910
      C    2   -0.21049      1.99860     4.20095    0.01094     6.21049
      C    3   -0.06096      1.99866     4.05139    0.01091     6.06096
      C    4   -0.03351      1.99871     4.02393    0.01087     6.03351
      C    5   -0.20986      1.99861     4.20106    0.01018     6.20986
      C    6   -0.23755      1.99859     4.22762    0.01133     6.23755
      C    7   -0.21042      1.99859     4.20076    0.01107     6.21042
      C    8   -0.03351      1.99871     4.02393    0.01087     6.03351
      C    9   -0.06096      1.99866     4.05139    0.01091     6.06096
      C   10   -0.21042      1.99859     4.20076    0.01107     6.21042
      C   11   -0.21049      1.99860     4.20095    0.01094     6.21049
      H   12    0.23953      0.00000     0.75953    0.00093     0.76047
      C   13   -0.23910      1.99858     4.22931    0.01122     6.23910
      C   14   -0.23755      1.99859     4.22762    0.01133     6.23755
      C   15   -0.20986      1.99861     4.20106    0.01018     6.20986
      H   16    0.24076      0.00000     0.75830    0.00094     0.75924
      H   17    0.24341      0.00000     0.75582    0.00077     0.75659
      H   18    0.23953      0.00000     0.75953    0.00093     0.76047
      H   19    0.23527      0.00000     0.76384    0.00089     0.76473
      H   20    0.24291      0.00000     0.75630    0.00079     0.75709
      H   21    0.24076      0.00000     0.75830    0.00094     0.75924
      H   22    0.24341      0.00000     0.75582    0.00077     0.75659
      H   23    0.24291      0.00000     0.75630    0.00079     0.75709
      H   24    0.23527      0.00000     0.76384    0.00089     0.76473
 =======================================================================
   * Total *    0.00000     27.98071    65.85762    0.16168    94.00000

                                 Natural Population      
 --------------------------------------------------------
   Core                      27.98071 ( 99.9311% of  28)
   Valence                   65.85762 ( 99.7843% of  66)
   Natural Minimal Basis     93.83832 ( 99.8280% of  94)
   Natural Rydberg Basis      0.16168 (  0.1720% of  94)
 --------------------------------------------------------

    Atom  No          Natural Electron Configuration
 ----------------------------------------------------------------------------
      C    1      [core]2S( 0.95)2p( 3.28)3p( 0.01)
      C    2      [core]2S( 0.93)2p( 3.27)3p( 0.01)
      C    3      [core]2S( 0.85)2p( 3.20)3p( 0.01)
      C    4      [core]2S( 0.84)2p( 3.18)3p( 0.01)
      C    5      [core]2S( 0.93)2p( 3.27)3p( 0.01)
      C    6      [core]2S( 0.95)2p( 3.28)3p( 0.01)
      C    7      [core]2S( 0.93)2p( 3.27)3p( 0.01)
      C    8      [core]2S( 0.84)2p( 3.18)3p( 0.01)
      C    9      [core]2S( 0.85)2p( 3.20)3p( 0.01)
      C   10      [core]2S( 0.93)2p( 3.27)3p( 0.01)
      C   11      [core]2S( 0.93)2p( 3.27)3p( 0.01)
      H   12            1S( 0.76)
      C   13      [core]2S( 0.95)2p( 3.28)3p( 0.01)
      C   14      [core]2S( 0.95)2p( 3.28)3p( 0.01)
      C   15      [core]2S( 0.93)2p( 3.27)3p( 0.01)
      H   16            1S( 0.76)
      H   17            1S( 0.76)
      H   18            1S( 0.76)
      H   19            1S( 0.76)
      H   20            1S( 0.76)
      H   21            1S( 0.76)
      H   22            1S( 0.76)
      H   23            1S( 0.76)
      H   24            1S( 0.76)


 NAOs in the AO basis:                                                         

          AO         1       2       3       4       5       6       7       8
      ---------- ------- ------- ------- ------- ------- ------- ------- -------
   1.  C 1 (S)    1.0031 -0.2036  0.0752  0.0000  0.0000  0.0004 -0.0627 -0.0003
   2.  C 1 (S)    0.0768  0.5470  1.9976  0.0000  0.0000 -0.0675 -0.1793  0.0017
   3.  C 1 (px)   0.0000  0.0000  0.0000  0.6221  1.0217  0.0000  0.0000  0.0000
   4.  C 1 (py)  -0.0041 -0.0733  0.0343  0.0000  0.0000  0.8260  0.9731 -0.0020
   5.  C 1 (pz)   0.0008  0.0067 -0.0120  0.0000  0.0000 -0.0007  0.0117  0.8233
   6.  C 1 (S)   -0.0623  1.3262 -6.4057  0.0000  0.0000  0.2311  2.2233  0.0089
   7.  C 1 (px)   0.0000  0.0000  0.0000  0.6133 -1.4213  0.0000  0.0000  0.0000
   8.  C 1 (py)  -0.0207  0.0830  1.8694  0.0000  0.0000  0.3164 -5.1184 -0.0131
   9.  C 1 (pz)   0.0019  0.0136 -0.0376  0.0000  0.0000 -0.0101 -0.0152  0.5526
  10.  C 2 (S)    0.0055  0.0441 -0.0687  0.0000  0.0000 -0.0048  0.0476  0.0237
  11.  C 2 (S)    0.0000 -0.0972 -0.1782  0.0000  0.0000  0.0679  0.0787 -0.0666
  12.  C 2 (px)   0.0000  0.0000  0.0000 -0.0835  0.0319  0.0000  0.0000  0.0000
  13.  C 2 (py)  -0.0064 -0.1073  0.0515  0.0000  0.0000 -0.0480  0.0053 -0.1507
  14.  C 2 (pz)   0.0136  0.1990 -0.0599  0.0000  0.0000 -0.1237  0.1130  0.0992
  15.  C 2 (S)   -0.0325 -0.1694  3.0659  0.0000  0.0000 -0.2532 -3.1142 -0.2591
  16.  C 2 (px)   0.0000  0.0000  0.0000 -0.1082  0.4531  0.0000  0.0000  0.0000
  17.  C 2 (py)  -0.0136 -0.2611 -0.0243  0.0000  0.0000  0.1863  1.4170  0.0607
  18.  C 2 (pz)   0.0432  0.1793 -2.0925  0.0000  0.0000  0.1133  2.1255  0.0967
  19.  C 3 (S)   -0.0009  0.0045  0.0135  0.0000  0.0000 -0.0101 -0.0160  0.0021
  20.  C 3 (S)   -0.0003  0.0035  0.0393  0.0000  0.0000 -0.0122 -0.0114 -0.0110
  21.  C 3 (px)   0.0000  0.0000  0.0000  0.0110 -0.0052  0.0000  0.0000  0.0000
  22.  C 3 (py)   0.0011 -0.0151 -0.0191  0.0000  0.0000  0.0152  0.0689 -0.0250
  23.  C 3 (pz)  -0.0047 -0.0382 -0.0204  0.0000  0.0000 -0.0034  0.0017 -0.0220
  24.  C 3 (S)    0.0064 -0.1519 -0.9555  0.0000  0.0000  0.2689  1.6919  0.0341
  25.  C 3 (px)   0.0000  0.0000  0.0000  0.0021 -0.1421  0.0000  0.0000  0.0000
  26.  C 3 (py)   0.0074 -0.1347 -0.7404  0.0000  0.0000  0.2361  1.1163  0.1249
  27.  C 3 (pz)  -0.0197  0.0570  1.0916  0.0000  0.0000 -0.1355 -0.5987  0.0416
  28.  C 4 (S)   -0.0002 -0.0008 -0.0161  0.0000  0.0000 -0.0001  0.0116 -0.0003
  29.  C 4 (S)   -0.0006 -0.0173 -0.0561  0.0000  0.0000  0.0108  0.0446 -0.0014
  30.  C 4 (px)   0.0000  0.0000  0.0000 -0.0085 -0.0063  0.0000  0.0000  0.0000
  31.  C 4 (py)   0.0003 -0.0089 -0.0193  0.0000  0.0000  0.0163  0.0323  0.0019
  32.  C 4 (pz)  -0.0002 -0.0003  0.0046  0.0000  0.0000  0.0001 -0.0019 -0.0171
  33.  C 4 (S)   -0.0157  0.0500  1.0494  0.0000  0.0000 -0.0931 -0.5251  0.0192
  34.  C 4 (px)   0.0000  0.0000  0.0000  0.0054  0.1161  0.0000  0.0000  0.0000
  35.  C 4 (py)  -0.0074  0.1520  1.2254  0.0000  0.0000 -0.2320 -1.2268 -0.0159
  36.  C 4 (pz)   0.0010 -0.0308 -0.2065  0.0000  0.0000  0.0475  0.2205  0.1105
  37.  C 5 (S)   -0.0009  0.0052  0.0168  0.0000  0.0000 -0.0109 -0.0159 -0.0025
  38.  C 5 (S)   -0.0004  0.0056  0.0577  0.0000  0.0000 -0.0134 -0.0085  0.0110
  39.  C 5 (px)   0.0000  0.0000  0.0000  0.0106 -0.0123  0.0000  0.0000  0.0000
  40.  C 5 (py)   0.0010 -0.0225 -0.0458  0.0000  0.0000  0.0218  0.1067  0.0248
  41.  C 5 (pz)   0.0051  0.0377 -0.0092  0.0000  0.0000  0.0059  0.0157 -0.0211
  42.  C 5 (S)    0.0093 -0.2033 -1.3285  0.0000  0.0000  0.3332  1.9845 -0.0190
  43.  C 5 (px)   0.0000  0.0000  0.0000  0.0027 -0.1291  0.0000  0.0000  0.0000
  44.  C 5 (py)   0.0032 -0.0716 -0.2548  0.0000  0.0000  0.1305  0.6289 -0.0836
  45.  C 5 (pz)   0.0184 -0.0642 -1.1057  0.0000  0.0000  0.1641  0.7546  0.0358
  46.  C 6 (S)    0.0050  0.0427 -0.0674  0.0000  0.0000 -0.0046  0.0456 -0.0246
  47.  C 6 (S)    0.0004 -0.0895 -0.1695  0.0000  0.0000  0.0604  0.0709  0.0666
  48.  C 6 (px)   0.0000  0.0000  0.0000 -0.0804  0.0329  0.0000  0.0000  0.0000
  49.  C 6 (py)  -0.0050 -0.0886  0.0616  0.0000  0.0000 -0.0609  0.0024  0.1395
  50.  C 6 (pz)  -0.0123 -0.1896  0.0750  0.0000  0.0000  0.1087 -0.1255  0.1071
  51.  C 6 (S)   -0.0263 -0.1661  2.7039  0.0000  0.0000 -0.2208 -2.7412  0.2202
  52.  C 6 (px)   0.0000  0.0000  0.0000 -0.1035  0.4397  0.0000  0.0000  0.0000
  53.  C 6 (py)  -0.0096 -0.2317 -0.1030  0.0000  0.0000  0.1691  1.4626 -0.0422
  54.  C 6 (pz)  -0.0392 -0.1780  1.9628  0.0000  0.0000 -0.1107 -1.9709  0.0895
  55.  C 7 (S)    0.0002  0.0026  0.0027  0.0000  0.0000 -0.0006  0.0022  0.0011
  56.  C 7 (S)    0.0007  0.0043  0.0004  0.0000  0.0000  0.0005 -0.0064 -0.0006
  57.  C 7 (px)   0.0000  0.0000  0.0000  0.0011  0.0051  0.0000  0.0000  0.0000
  58.  C 7 (py)  -0.0005 -0.0163 -0.0402  0.0000  0.0000  0.0094  0.0091 -0.0093
  59.  C 7 (pz)  -0.0009  0.0012  0.0228  0.0000  0.0000 -0.0033  0.0004  0.0019
  60.  C 7 (S)    0.0098 -0.0715 -0.7377  0.0000  0.0000  0.0997  0.4047 -0.0002
  61.  C 7 (px)   0.0000  0.0000  0.0000  0.0031  0.0142  0.0000  0.0000  0.0000
  62.  C 7 (py)  -0.0030  0.0067  0.2249  0.0000  0.0000 -0.0438 -0.2891 -0.0247
  63.  C 7 (pz)  -0.0036  0.0353  0.2889  0.0000  0.0000 -0.0525 -0.2141 -0.0216
  64.  C 8 (S)    0.0000 -0.0004 -0.0044  0.0000  0.0000  0.0008  0.0070  0.0000
  65.  C 8 (S)    0.0002 -0.0013 -0.0132  0.0000  0.0000  0.0035  0.0119 -0.0003
  66.  C 8 (px)   0.0000  0.0000  0.0000  0.0012  0.0001  0.0000  0.0000  0.0000
  67.  C 8 (py)   0.0003  0.0011  0.0039  0.0000  0.0000 -0.0007 -0.0157 -0.0007
  68.  C 8 (pz)   0.0000 -0.0007 -0.0030  0.0000  0.0000  0.0006  0.0032  0.0002
  69.  C 8 (S)   -0.0016  0.0694  0.4700  0.0000  0.0000 -0.1155 -0.6004 -0.0064
  70.  C 8 (px)   0.0000  0.0000  0.0000 -0.0051 -0.0397  0.0000  0.0000  0.0000
  71.  C 8 (py)  -0.0018  0.0594  0.4214  0.0000  0.0000 -0.0922 -0.4717 -0.0102
  72.  C 8 (pz)  -0.0010  0.0187  0.1413  0.0000  0.0000 -0.0231 -0.1095 -0.0428
  73.  C 9 (S)    0.0000  0.0003  0.0011  0.0000  0.0000 -0.0004 -0.0008  0.0000
  74.  C 9 (S)    0.0000  0.0006  0.0042  0.0000  0.0000 -0.0011 -0.0056 -0.0006
  75.  C 9 (px)   0.0000  0.0000  0.0000 -0.0004 -0.0009  0.0000  0.0000  0.0000
  76.  C 9 (py)   0.0000  0.0001  0.0034  0.0000  0.0000 -0.0012 -0.0068 -0.0006
  77.  C 9 (pz)  -0.0001  0.0002  0.0025  0.0000  0.0000 -0.0009 -0.0039 -0.0011
  78.  C 9 (S)    0.0008 -0.0139 -0.1025  0.0000  0.0000  0.0120  0.0526  0.0164
  79.  C 9 (px)   0.0000  0.0000  0.0000  0.0025  0.0147  0.0000  0.0000  0.0000
  80.  C 9 (py)   0.0015 -0.0304 -0.2138  0.0000  0.0000  0.0457  0.2155  0.0127
  81.  C 9 (pz)   0.0005 -0.0134 -0.0949  0.0000  0.0000  0.0156  0.0753 -0.0078
  82.  C10 (S)    0.0000 -0.0002 -0.0063  0.0000  0.0000  0.0002  0.0036 -0.0001
  83.  C10 (S)   -0.0001 -0.0058 -0.0222  0.0000  0.0000  0.0028  0.0080 -0.0043
  84.  C10 (px)   0.0000  0.0000  0.0000 -0.0006 -0.0008  0.0000  0.0000  0.0000
  85.  C10 (py)  -0.0003 -0.0033  0.0101  0.0000  0.0000  0.0000 -0.0116 -0.0041
  86.  C10 (pz)   0.0000  0.0009  0.0017  0.0000  0.0000  0.0002  0.0017  0.0017
  87.  C10 (S)   -0.0044  0.0412  0.4522  0.0000  0.0000 -0.0689 -0.3731 -0.0108
  88.  C10 (px)   0.0000  0.0000  0.0000 -0.0015 -0.0022  0.0000  0.0000  0.0000
  89.  C10 (py)  -0.0017  0.0136  0.1747  0.0000  0.0000 -0.0219 -0.1309  0.0003
  90.  C10 (pz)   0.0010 -0.0207 -0.1609  0.0000  0.0000  0.0197  0.0958 -0.0009
  91.  C11 (S)    0.0000  0.0001  0.0004  0.0000  0.0000 -0.0002 -0.0006  0.0000
  92.  C11 (S)    0.0000 -0.0001 -0.0002  0.0000  0.0000 -0.0002 -0.0009 -0.0001
  93.  C11 (px)   0.0000  0.0000  0.0000  0.0000 -0.0002  0.0000  0.0000  0.0000
  94.  C11 (py)   0.0000 -0.0012 -0.0070  0.0000  0.0000  0.0015  0.0064 -0.0003
  95.  C11 (pz)   0.0000 -0.0004 -0.0019  0.0000  0.0000  0.0001  0.0003 -0.0005
  96.  C11 (S)    0.0008 -0.0181 -0.1277  0.0000  0.0000  0.0293  0.1389  0.0012
  97.  C11 (px)   0.0000  0.0000  0.0000 -0.0008 -0.0044  0.0000  0.0000  0.0000
  98.  C11 (py)   0.0002 -0.0044 -0.0274  0.0000  0.0000  0.0091  0.0419  0.0055
  99.  C11 (pz)  -0.0004  0.0075  0.0568  0.0000  0.0000 -0.0077 -0.0368  0.0060
 100.  H12 (S)    0.0000 -0.0005 -0.0034  0.0000  0.0000  0.0002  0.0004 -0.0006
 101.  H12 (S)    0.0001 -0.0012 -0.0083  0.0000  0.0000  0.0010  0.0039 -0.0010
 102.  C13 (S)    0.0000 -0.0001 -0.0012  0.0000  0.0000  0.0002  0.0011  0.0000
 103.  C13 (S)    0.0000 -0.0008 -0.0056  0.0000  0.0000  0.0012  0.0056 -0.0001
 104.  C13 (px)   0.0000  0.0000  0.0000 -0.0001 -0.0002  0.0000  0.0000  0.0000
 105.  C13 (py)   0.0000 -0.0002 -0.0008  0.0000  0.0000  0.0005  0.0020  0.0000
 106.  C13 (pz)   0.0000  0.0001  0.0011  0.0000  0.0000 -0.0001 -0.0005  0.0001
 107.  C13 (S)   -0.0005  0.0100  0.0754  0.0000  0.0000 -0.0111 -0.0541  0.0014
 108.  C13 (px)   0.0000  0.0000  0.0000  0.0005  0.0031  0.0000  0.0000  0.0000
 109.  C13 (py)  -0.0003  0.0063  0.0466  0.0000  0.0000 -0.0103 -0.0504  0.0013
 110.  C13 (pz)  -0.0001  0.0010  0.0081  0.0000  0.0000 -0.0015 -0.0074  0.0056
 111.  C14 (S)    0.0000  0.0000  0.0004  0.0000  0.0000 -0.0002 -0.0009  0.0001
 112.  C14 (S)    0.0000  0.0002  0.0010  0.0000  0.0000 -0.0005 -0.0024  0.0003
 113.  C14 (px)   0.0000  0.0000  0.0000  0.0000 -0.0002  0.0000  0.0000  0.0000
 114.  C14 (py)   0.0000 -0.0003 -0.0027  0.0000  0.0000  0.0009  0.0046  0.0000
 115.  C14 (pz)   0.0000  0.0000 -0.0004  0.0000  0.0000  0.0002  0.0007 -0.0001
 116.  C14 (S)    0.0005 -0.0089 -0.0667  0.0000  0.0000  0.0238  0.1154 -0.0066
 117.  C14 (px)   0.0000  0.0000  0.0000 -0.0007 -0.0040  0.0000  0.0000  0.0000
 118.  C14 (py)   0.0002 -0.0029 -0.0223  0.0000  0.0000  0.0105  0.0506 -0.0072
 119.  C14 (pz)   0.0003 -0.0049 -0.0357  0.0000  0.0000  0.0044  0.0202  0.0052
 120.  C15 (S)    0.0000 -0.0001 -0.0019  0.0000  0.0000  0.0001  0.0016  0.0000
 121.  C15 (S)    0.0000 -0.0012 -0.0069  0.0000  0.0000  0.0011  0.0044  0.0002
 122.  C15 (px)   0.0000  0.0000  0.0000 -0.0003 -0.0001  0.0000  0.0000  0.0000
 123.  C15 (py)   0.0001  0.0002  0.0026  0.0000  0.0000 -0.0014 -0.0075  0.0007
 124.  C15 (pz)   0.0000  0.0000 -0.0004  0.0000  0.0000  0.0000 -0.0002 -0.0006
 125.  C15 (S)   -0.0009  0.0180  0.1456  0.0000  0.0000 -0.0303 -0.1532 -0.0134
 126.  C15 (px)   0.0000  0.0000  0.0000  0.0020  0.0131  0.0000  0.0000  0.0000
 127.  C15 (py)   0.0004 -0.0049 -0.0320  0.0000  0.0000  0.0225  0.1056 -0.0166
 128.  C15 (pz)  -0.0007  0.0158  0.1141  0.0000  0.0000 -0.0181 -0.0865 -0.0144
 129.  H16 (S)    0.0000 -0.0064 -0.0237  0.0000  0.0000  0.0066  0.0270 -0.0005
 130.  H16 (S)    0.0000 -0.0116 -0.0426  0.0000  0.0000  0.0220  0.0969  0.0178
 131.  H17 (S)   -0.0019 -0.1663  0.0999  0.0000  0.0000 -0.1491  0.6078 -0.0012
 132.  H17 (S)   -0.0040 -0.2888  0.2682  0.0000  0.0000 -0.0714  2.0455  0.0013
 133.  H18 (S)   -0.0018 -0.0150  0.0736  0.0000  0.0000 -0.0010 -0.2098 -0.0326
 134.  H18 (S)   -0.0050  0.0099  0.4081  0.0000  0.0000 -0.0644 -0.6845 -0.0459
 135.  H19 (S)    0.0018 -0.0058 -0.0730  0.0000  0.0000  0.0108  0.0155  0.0042
 136.  H19 (S)    0.0041 -0.0261 -0.2494  0.0000  0.0000  0.0410  0.1268  0.0049
 137.  H20 (S)   -0.0016 -0.0139  0.0716  0.0000  0.0000 -0.0037 -0.2166  0.0335
 138.  H20 (S)   -0.0045  0.0111  0.3933  0.0000  0.0000 -0.0659 -0.6737  0.0401
 139.  H21 (S)    0.0000  0.0004  0.0048  0.0000  0.0000  0.0004  0.0011  0.0004
 140.  H21 (S)   -0.0002  0.0053  0.0421  0.0000  0.0000 -0.0040 -0.0210  0.0023
 141.  H22 (S)    0.0000  0.0002  0.0015  0.0000  0.0000 -0.0007 -0.0035  0.0001
 142.  H22 (S)   -0.0001  0.0015  0.0110  0.0000  0.0000 -0.0027 -0.0134  0.0003
 143.  H23 (S)    0.0000 -0.0002 -0.0017  0.0000  0.0000 -0.0001 -0.0010  0.0004
 144.  H23 (S)    0.0001 -0.0010 -0.0071  0.0000  0.0000  0.0009  0.0037  0.0007
 145.  H24 (S)    0.0000  0.0010  0.0039  0.0000  0.0000 -0.0024 -0.0092  0.0014
 146.  H24 (S)   -0.0002  0.0077  0.0494  0.0000  0.0000 -0.0062 -0.0253 -0.0070

          AO         9      10      11      12      13      14      15      16
      ---------- ------- ------- ------- ------- ------- ------- ------- -------
   1.  C 1 (S)   -0.0003  0.0055  0.0445 -0.0690  0.0000  0.0000  0.0185 -0.0010
   2.  C 1 (S)   -0.0075  0.0000 -0.0975 -0.1775  0.0000  0.0000 -0.0301  0.0686
   3.  C 1 (px)   0.0000  0.0000  0.0000  0.0000 -0.0837  0.0349  0.0000  0.0000
   4.  C 1 (py)   0.0053  0.0091  0.1280 -0.0358  0.0000  0.0000 -0.0433  0.0301
   5.  C 1 (pz)   0.8874 -0.0118 -0.1793  0.1072  0.0000  0.0000 -0.1563  0.0565
   6.  C 1 (S)   -0.0774 -0.0312 -0.1894  2.9317  0.0000  0.0000 -0.2962  0.2469
   7.  C 1 (px)   0.0000  0.0000  0.0000  0.0000 -0.1099  0.4494  0.0000  0.0000
   8.  C 1 (py)  -0.0294  0.0319  0.0385 -1.8858  0.0000  0.0000  0.1871  1.4359
   9.  C 1 (pz)  -4.1547 -0.0303 -0.3160  0.8567  0.0000  0.0000  0.0364  1.9863
  10.  C 2 (S)   -0.0211  1.0032 -0.2030  0.0843  0.0000  0.0000 -0.0006 -0.0379
  11.  C 2 (S)    0.0370  0.0773  0.5532  2.0167  0.0000  0.0000 -0.0363 -0.1025
  12.  C 2 (px)   0.0000  0.0000  0.0000  0.0000  0.6192  1.0229  0.0000  0.0000
  13.  C 2 (py)   0.0763 -0.0022 -0.0318  0.0548  0.0000  0.0000  0.8208  0.8882
  14.  C 2 (pz)  -0.0587 -0.0039 -0.0682  0.0135  0.0000  0.0000 -0.0036  0.0412
  15.  C 2 (S)    1.5509 -0.0559  1.2787 -7.1519  0.0000  0.0000  0.1980  1.5317
  16.  C 2 (px)   0.0000  0.0000  0.0000  0.0000  0.6189 -1.4406  0.0000  0.0000
  17.  C 2 (py)   2.0816 -0.0122  0.0858  1.2731  0.0000  0.0000  0.4582 -4.7103
  18.  C 2 (pz)  -0.7376 -0.0196  0.0781  1.7220  0.0000  0.0000 -0.0952 -0.3269
  19.  C 3 (S)   -0.0127  0.0050  0.0440 -0.0613  0.0000  0.0000 -0.0245  0.0399
  20.  C 3 (S)   -0.0032  0.0004 -0.0761 -0.1619  0.0000  0.0000  0.0744  0.0275
  21.  C 3 (px)   0.0000  0.0000  0.0000  0.0000 -0.0823  0.0067  0.0000  0.0000
  22.  C 3 (py)   0.0286 -0.0134 -0.2293 -0.0228  0.0000  0.0000  0.1881 -0.0476
  23.  C 3 (pz)  -0.0212  0.0002  0.0069  0.0288  0.0000  0.0000  0.0154  0.0221
  24.  C 3 (S)    0.6531 -0.0262 -0.2320  2.4065  0.0000  0.0000  0.1573 -2.5317
  25.  C 3 (px)   0.0000  0.0000  0.0000  0.0000 -0.1109  0.5281  0.0000  0.0000
  26.  C 3 (py)   0.9860 -0.0553 -0.1715  3.0990  0.0000  0.0000 -0.0919 -2.9587
  27.  C 3 (pz)   0.4190  0.0078 -0.1393 -1.0724  0.0000  0.0000 -0.0010 -0.1426
  28.  C 4 (S)   -0.0011 -0.0008  0.0032  0.0048  0.0000  0.0000 -0.0050  0.0103
  29.  C 4 (S)   -0.0073 -0.0003 -0.0033  0.0066  0.0000  0.0000  0.0110  0.0296
  30.  C 4 (px)   0.0000  0.0000  0.0000  0.0000  0.0126 -0.0046  0.0000  0.0000
  31.  C 4 (py)   0.0029  0.0042  0.0267  0.0183  0.0000  0.0000 -0.0039 -0.0150
  32.  C 4 (pz)  -0.0158 -0.0014 -0.0339 -0.0348  0.0000  0.0000  0.0351  0.0228
  33.  C 4 (S)    0.0848 -0.0001 -0.0873 -0.3209  0.0000  0.0000  0.0028 -0.2484
  34.  C 4 (px)   0.0000  0.0000  0.0000  0.0000  0.0009 -0.1682  0.0000  0.0000
  35.  C 4 (py)  -0.0920  0.0218 -0.1621 -1.6504  0.0000  0.0000  0.1418  0.6933
  36.  C 4 (pz)   0.7013 -0.0088  0.0226  0.7271  0.0000  0.0000 -0.1471 -1.0960
  37.  C 5 (S)    0.0116 -0.0003 -0.0020 -0.0216  0.0000  0.0000  0.0010  0.0111
  38.  C 5 (S)   -0.0076 -0.0007 -0.0207 -0.0656  0.0000  0.0000  0.0077  0.0329
  39.  C 5 (px)   0.0000  0.0000  0.0000  0.0000 -0.0078  0.0009  0.0000  0.0000
  40.  C 5 (py)  -0.0490  0.0002 -0.0030 -0.0021  0.0000  0.0000 -0.0084  0.0077
  41.  C 5 (pz)  -0.0062  0.0001 -0.0020  0.0203  0.0000  0.0000  0.0078 -0.0099
  42.  C 5 (S)   -0.5674 -0.0186  0.1398  1.6741  0.0000  0.0000 -0.1443 -0.7315
  43.  C 5 (px)   0.0000  0.0000  0.0000  0.0000  0.0028  0.1000  0.0000  0.0000
  44.  C 5 (py)  -0.7755 -0.0018  0.0393  0.3315  0.0000  0.0000  0.0316  0.2607
  45.  C 5 (pz)   0.3840 -0.0049  0.1066  0.8570  0.0000  0.0000 -0.1105 -0.6403
  46.  C 6 (S)    0.0262 -0.0009  0.0054  0.0163  0.0000  0.0000 -0.0030 -0.0193
  47.  C 6 (S)   -0.0275 -0.0003  0.0052  0.0537  0.0000  0.0000 -0.0168 -0.0025
  48.  C 6 (px)   0.0000  0.0000  0.0000  0.0000  0.0105 -0.0118  0.0000  0.0000
  49.  C 6 (py)  -0.0782 -0.0041 -0.0453 -0.0208  0.0000  0.0000 -0.0237  0.0407
  50.  C 6 (pz)  -0.0767  0.0036 -0.0009 -0.0494  0.0000  0.0000  0.0019  0.0899
  51.  C 6 (S)   -1.6588  0.0090 -0.1923 -1.2668  0.0000  0.0000  0.1794  1.4587
  52.  C 6 (px)   0.0000  0.0000  0.0000  0.0000  0.0037 -0.1226  0.0000  0.0000
  53.  C 6 (py)  -1.8670 -0.0138 -0.0006  0.6893  0.0000  0.0000  0.0181  0.4354
  54.  C 6 (pz)  -0.8894  0.0123 -0.0951 -0.7904  0.0000  0.0000  0.1401  0.8561
  55.  C 7 (S)   -0.0014 -0.0006  0.0009 -0.0148  0.0000  0.0000 -0.0054  0.0102
  56.  C 7 (S)   -0.0108 -0.0003 -0.0156 -0.0502  0.0000  0.0000  0.0139  0.0478
  57.  C 7 (px)   0.0000  0.0000  0.0000  0.0000  0.0074 -0.0166  0.0000  0.0000
  58.  C 7 (py)  -0.0208  0.0047  0.0291  0.0189  0.0000  0.0000  0.0108  0.0227
  59.  C 7 (pz)   0.0028  0.0021  0.0263 -0.0298  0.0000  0.0000 -0.0273  0.0018
  60.  C 7 (S)   -0.0538 -0.0123  0.1060  1.2649  0.0000  0.0000 -0.0389 -0.3600
  61.  C 7 (px)   0.0000  0.0000  0.0000  0.0000  0.0052 -0.0925  0.0000  0.0000
  62.  C 7 (py)  -0.0644  0.0139 -0.0072 -0.4866  0.0000  0.0000  0.0494  0.1717
  63.  C 7 (pz)  -0.1168  0.0095 -0.0456 -0.8306  0.0000  0.0000  0.0596  0.5870
  64.  C 8 (S)    0.0000  0.0001  0.0028  0.0054  0.0000  0.0000 -0.0018 -0.0003
  65.  C 8 (S)   -0.0017  0.0004  0.0043  0.0078  0.0000  0.0000 -0.0004  0.0007
  66.  C 8 (px)   0.0000  0.0000  0.0000  0.0000 -0.0002  0.0026  0.0000  0.0000
  67.  C 8 (py)  -0.0039  0.0007 -0.0054 -0.0327  0.0000  0.0000  0.0078  0.0176
  68.  C 8 (pz)   0.0010 -0.0006 -0.0083 -0.0092  0.0000  0.0000  0.0040  0.0009
  69.  C 8 (S)   -0.0341  0.0104 -0.0927 -0.8898  0.0000  0.0000  0.0849  0.4274
  70.  C 8 (px)   0.0000  0.0000  0.0000  0.0000  0.0056  0.0365  0.0000  0.0000
  71.  C 8 (py)  -0.0499  0.0049 -0.0825 -0.5845  0.0000  0.0000  0.0632  0.2524
  72.  C 8 (pz)  -0.2034 -0.0009 -0.0380 -0.1424  0.0000  0.0000  0.0682  0.2805
  73.  C 9 (S)   -0.0006  0.0001  0.0006 -0.0038  0.0000  0.0000 -0.0002  0.0036
  74.  C 9 (S)   -0.0034  0.0002 -0.0019 -0.0203  0.0000  0.0000  0.0031  0.0173
  75.  C 9 (px)   0.0000  0.0000  0.0000  0.0000  0.0020  0.0037  0.0000  0.0000
  76.  C 9 (py)  -0.0019 -0.0001 -0.0081 -0.0251  0.0000  0.0000  0.0067  0.0157
  77.  C 9 (pz)  -0.0049  0.0000 -0.0010 -0.0059  0.0000  0.0000  0.0020  0.0091
  78.  C 9 (S)    0.0753 -0.0001  0.0290  0.1590  0.0000  0.0000 -0.0394 -0.1723
  79.  C 9 (px)   0.0000  0.0000  0.0000  0.0000 -0.0023 -0.0276  0.0000  0.0000
  80.  C 9 (py)   0.0630 -0.0035  0.0488  0.4458  0.0000  0.0000 -0.0491 -0.2810
  81.  C 9 (pz)  -0.0359 -0.0010  0.0202  0.1507  0.0000  0.0000 -0.0024 -0.0125
  82.  C10 (S)   -0.0028  0.0002  0.0030  0.0032  0.0000  0.0000 -0.0010  0.0062
  83.  C10 (S)   -0.0137  0.0007  0.0045  0.0010  0.0000  0.0000  0.0049  0.0168
  84.  C10 (px)   0.0000  0.0000  0.0000  0.0000  0.0009  0.0042  0.0000  0.0000
  85.  C10 (py)  -0.0060  0.0008 -0.0054 -0.0418  0.0000  0.0000  0.0097  0.0145
  86.  C10 (pz)   0.0050  0.0005  0.0075  0.0095  0.0000  0.0000 -0.0057 -0.0094
  87.  C10 (S)    0.0024  0.0098 -0.0729 -0.7581  0.0000  0.0000  0.0527  0.1952
  88.  C10 (px)   0.0000  0.0000  0.0000  0.0000  0.0026  0.0126  0.0000  0.0000
  89.  C10 (py)   0.0314  0.0024 -0.0259 -0.1954  0.0000  0.0000  0.0078 -0.0349
  90.  C10 (pz)  -0.0109 -0.0003  0.0485  0.2516  0.0000  0.0000 -0.0302 -0.1051
  91.  C11 (S)   -0.0002  0.0000  0.0000 -0.0029  0.0000  0.0000  0.0001  0.0022
  92.  C11 (S)   -0.0004  0.0000 -0.0022 -0.0081  0.0000  0.0000  0.0020  0.0056
  93.  C11 (px)   0.0000  0.0000  0.0000  0.0000 -0.0004  0.0001  0.0000  0.0000
  94.  C11 (py)  -0.0005 -0.0002 -0.0008  0.0107  0.0000  0.0000  0.0013 -0.0036
  95.  C11 (pz)  -0.0018  0.0000  0.0003  0.0020  0.0000  0.0000  0.0005  0.0017
  96.  C11 (S)    0.0080 -0.0023  0.0287  0.2742  0.0000  0.0000 -0.0222 -0.1399
  97.  C11 (px)   0.0000  0.0000  0.0000  0.0000  0.0009  0.0095  0.0000  0.0000
  98.  C11 (py)   0.0283 -0.0010  0.0107  0.1153  0.0000  0.0000 -0.0160 -0.0988
  99.  C11 (pz)   0.0295  0.0005 -0.0106 -0.0771  0.0000  0.0000 -0.0017 -0.0096
 100.  H12 (S)   -0.0025  0.0000  0.0004  0.0034  0.0000  0.0000  0.0007  0.0028
 101.  H12 (S)   -0.0043 -0.0001  0.0026  0.0197  0.0000  0.0000 -0.0010 -0.0061
 102.  C13 (S)   -0.0002  0.0000  0.0002  0.0010  0.0000  0.0000 -0.0001  0.0001
 103.  C13 (S)   -0.0004  0.0000  0.0008  0.0059  0.0000  0.0000 -0.0002 -0.0015
 104.  C13 (px)   0.0000  0.0000  0.0000  0.0000  0.0001  0.0002  0.0000  0.0000
 105.  C13 (py)   0.0001  0.0000  0.0001  0.0009  0.0000  0.0000  0.0000 -0.0005
 106.  C13 (pz)   0.0005  0.0000 -0.0006 -0.0037  0.0000  0.0000  0.0001 -0.0002
 107.  C13 (S)    0.0079  0.0005 -0.0112 -0.0777  0.0000  0.0000  0.0031  0.0110
 108.  C13 (px)   0.0000  0.0000  0.0000  0.0000 -0.0006 -0.0036  0.0000  0.0000
 109.  C13 (py)   0.0064  0.0005 -0.0096 -0.0695  0.0000  0.0000  0.0056  0.0256
 110.  C13 (pz)   0.0274  0.0000 -0.0007 -0.0029  0.0000  0.0000 -0.0056 -0.0290
 111.  C14 (S)    0.0005  0.0000  0.0000 -0.0011  0.0000  0.0000  0.0001  0.0010
 112.  C14 (S)    0.0013  0.0000 -0.0005 -0.0028  0.0000  0.0000  0.0006  0.0024
 113.  C14 (px)   0.0000  0.0000  0.0000  0.0000  0.0001  0.0001  0.0000  0.0000
 114.  C14 (py)   0.0000  0.0000  0.0001  0.0030  0.0000  0.0000 -0.0002 -0.0026
 115.  C14 (pz)  -0.0008  0.0000  0.0004  0.0020  0.0000  0.0000  0.0000  0.0002
 116.  C14 (S)   -0.0314 -0.0008  0.0174  0.1332  0.0000  0.0000 -0.0136 -0.0700
 117.  C14 (px)   0.0000  0.0000  0.0000  0.0000  0.0005  0.0013  0.0000  0.0000
 118.  C14 (py)  -0.0345 -0.0004  0.0070  0.0558  0.0000  0.0000 -0.0032 -0.0185
 119.  C14 (pz)   0.0244 -0.0001  0.0034  0.0224  0.0000  0.0000 -0.0068 -0.0321
 120.  C15 (S)    0.0003  0.0000  0.0005 -0.0010  0.0000  0.0000 -0.0005  0.0009
 121.  C15 (S)    0.0009 -0.0001 -0.0022 -0.0019  0.0000  0.0000  0.0020  0.0031
 122.  C15 (px)   0.0000  0.0000  0.0000  0.0000 -0.0005 -0.0007  0.0000  0.0000
 123.  C15 (py)   0.0025 -0.0001 -0.0033 -0.0057  0.0000  0.0000  0.0034  0.0062
 124.  C15 (pz)  -0.0023 -0.0002 -0.0028  0.0013  0.0000  0.0000  0.0026  0.0016
 125.  C15 (S)   -0.0637 -0.0003 -0.0308 -0.1150  0.0000  0.0000  0.0374  0.1273
 126.  C15 (px)   0.0000  0.0000  0.0000  0.0000 -0.0018 -0.0051  0.0000  0.0000
 127.  C15 (py)  -0.0806 -0.0011  0.0125  0.1333  0.0000  0.0000 -0.0017 -0.0315
 128.  C15 (pz)  -0.0672  0.0002 -0.0183 -0.0850  0.0000  0.0000  0.0225  0.0834
 129.  H16 (S)    0.0090 -0.0011 -0.0003  0.0707  0.0000  0.0000  0.0092 -0.0412
 130.  H16 (S)    0.1063 -0.0029  0.0162  0.2526  0.0000  0.0000 -0.0366 -0.3338
 131.  H17 (S)    0.0189 -0.0018 -0.0146  0.0785  0.0000  0.0000 -0.0334 -0.2397
 132.  H17 (S)    0.0506 -0.0050  0.0118  0.4217  0.0000  0.0000 -0.0721 -0.4906
 133.  H18 (S)   -0.1382 -0.0018 -0.1652  0.1014  0.0000  0.0000 -0.0740  0.2656
 134.  H18 (S)   -0.1870 -0.0037 -0.2976  0.2355  0.0000  0.0000 -0.0323  0.9907
 135.  H19 (S)    0.0201  0.0004  0.0056  0.0273  0.0000  0.0000 -0.0024 -0.0185
 136.  H19 (S)    0.0232 -0.0002  0.0318  0.2060  0.0000  0.0000 -0.0197 -0.1083
 137.  H20 (S)    0.1340  0.0019 -0.0045 -0.0705  0.0000  0.0000  0.0011 -0.0147
 138.  H20 (S)    0.1448  0.0040 -0.0198 -0.2127  0.0000  0.0000  0.0196  0.0586
 139.  H21 (S)    0.0038 -0.0003 -0.0053  0.0000  0.0000  0.0000  0.0033 -0.0037
 140.  H21 (S)    0.0143 -0.0005 -0.0132 -0.0243  0.0000  0.0000  0.0056 -0.0090
 141.  H22 (S)    0.0004  0.0000 -0.0007 -0.0046  0.0000  0.0000  0.0007  0.0027
 142.  H22 (S)    0.0014  0.0001 -0.0023 -0.0155  0.0000  0.0000  0.0014  0.0056
 143.  H23 (S)    0.0019  0.0000 -0.0003 -0.0015  0.0000  0.0000  0.0000 -0.0007
 144.  H23 (S)    0.0032  0.0000  0.0007  0.0062  0.0000  0.0000 -0.0015 -0.0086
 145.  H24 (S)    0.0066  0.0001 -0.0018 -0.0106  0.0000  0.0000  0.0005  0.0019
 146.  H24 (S)   -0.0342  0.0004 -0.0089 -0.0597  0.0000  0.0000  0.0097  0.0451

          AO        17      18      19      20      21      22      23      24
      ---------- ------- ------- ------- ------- ------- ------- ------- -------
   1.  C 1 (S)   -0.0154  0.0522 -0.0009  0.0041  0.0102  0.0000  0.0000  0.0093
   2.  C 1 (S)    0.0879  0.0333 -0.0003  0.0031  0.0344  0.0000  0.0000  0.0012
   3.  C 1 (px)   0.0000  0.0000  0.0000  0.0000  0.0000  0.0098 -0.0169  0.0000
   4.  C 1 (py)  -0.1225  0.1260 -0.0048 -0.0253  0.0217  0.0000  0.0000  0.0040
   5.  C 1 (pz)   0.0862 -0.1266 -0.0016 -0.0382 -0.0278  0.0000  0.0000 -0.0414
   6.  C 1 (S)   -0.1044 -3.5352  0.0057 -0.1225 -0.6416  0.0000  0.0000 -0.2074
   7.  C 1 (px)   0.0000  0.0000  0.0000  0.0000  0.0000  0.0020 -0.1250  0.0000
   8.  C 1 (py)   0.1042  2.1038 -0.0157  0.0419  0.6647  0.0000  0.0000  0.1533
   9.  C 1 (pz)   0.0702 -0.8723 -0.0054 -0.0484  0.1695  0.0000  0.0000  0.0481
  10.  C 2 (S)   -0.0006 -0.0553  0.0047  0.0422 -0.0588  0.0000  0.0000  0.0195
  11.  C 2 (S)   -0.0588 -0.1530  0.0005 -0.0866 -0.1154  0.0000  0.0000 -0.0926
  12.  C 2 (px)   0.0000  0.0000  0.0000  0.0000  0.0000 -0.0808  0.0541  0.0000
  13.  C 2 (py)  -0.0074  0.0228  0.0123  0.2054 -0.1053  0.0000  0.0000  0.1536
  14.  C 2 (pz)   0.8283  0.9610  0.0014  0.0132  0.0159  0.0000  0.0000  0.0035
  15.  C 2 (S)    0.2512  2.2374 -0.0223 -0.2526  1.8981  0.0000  0.0000  0.2770
  16.  C 2 (px)   0.0000  0.0000  0.0000  0.0000  0.0000 -0.1013  0.4786  0.0000
  17.  C 2 (py)  -0.1038 -0.3684  0.0356  0.3073 -1.2134  0.0000  0.0000 -0.1030
  18.  C 2 (pz)   0.3163 -5.3127  0.0083 -0.0723 -0.6039  0.0000  0.0000 -0.0886
  19.  C 3 (S)    0.0061  0.0206  1.0031 -0.2067  0.1003  0.0000  0.0000 -0.0015
  20.  C 3 (S)    0.0142  0.0509  0.0762  0.5723  2.0677  0.0000  0.0000 -0.0083
  21.  C 3 (px)   0.0000  0.0000  0.0000  0.0000  0.0000  0.6268  1.0453  0.0000
  22.  C 3 (py)  -0.0039 -0.0156  0.0001  0.0024  0.0079  0.0000  0.0000  0.8728
  23.  C 3 (pz)  -0.1402 -0.0422 -0.0008 -0.0109  0.0143  0.0000  0.0000 -0.0029
  24.  C 3 (S)   -0.2462 -1.3428 -0.0447  1.3483 -7.2981  0.0000  0.0000  0.0955
  25.  C 3 (px)   0.0000  0.0000  0.0000  0.0000  0.0000  0.6442 -1.6856  0.0000
  26.  C 3 (py)  -0.1365 -0.6497 -0.0027  0.0680  0.4077  0.0000  0.0000 -0.0772
  27.  C 3 (pz)   0.3879  3.5414 -0.0086  0.0998  0.8430  0.0000  0.0000  0.0715
  28.  C 4 (S)   -0.0080 -0.0255  0.0048  0.0419 -0.0648  0.0000  0.0000 -0.0087
  29.  C 4 (S)   -0.0205 -0.0316  0.0009 -0.0783 -0.1583  0.0000  0.0000  0.0478
  30.  C 4 (px)   0.0000  0.0000  0.0000  0.0000  0.0000 -0.0836  0.0225  0.0000
  31.  C 4 (py)   0.0098  0.0333 -0.0060 -0.1068  0.0098  0.0000  0.0000 -0.0639
  32.  C 4 (pz)  -0.0078  0.0657 -0.0105 -0.1909  0.0167  0.0000  0.0000  0.1378
  33.  C 4 (S)    0.2814  1.9959 -0.0277 -0.1818  2.4134  0.0000  0.0000 -0.1446
  34.  C 4 (px)   0.0000  0.0000  0.0000  0.0000  0.0000 -0.1006  0.5898  0.0000
  35.  C 4 (py)   0.2935  1.3778 -0.0252 -0.0977  1.1836  0.0000  0.0000  0.5005
  36.  C 4 (pz)   0.1434  0.9647 -0.0460 -0.1461  2.2919  0.0000  0.0000 -0.4047
  37.  C 5 (S)    0.0007  0.0159 -0.0009  0.0033  0.0044  0.0000  0.0000  0.0048
  38.  C 5 (S)    0.0134  0.0554 -0.0004 -0.0005  0.0261  0.0000  0.0000  0.0156
  39.  C 5 (px)   0.0000  0.0000  0.0000  0.0000  0.0000  0.0105 -0.0179  0.0000
  40.  C 5 (py)   0.0117  0.0004  0.0038  0.0416 -0.0152  0.0000  0.0000 -0.0195
  41.  C 5 (pz)   0.0036 -0.0055  0.0032  0.0081 -0.0106  0.0000  0.0000 -0.0152
  42.  C 5 (S)   -0.1738 -0.9194 -0.0003 -0.0532 -0.0988  0.0000  0.0000 -0.3979
  43.  C 5 (px)   0.0000  0.0000  0.0000  0.0000  0.0000 -0.0008 -0.1486  0.0000
  44.  C 5 (py)  -0.1131 -0.6718  0.0153 -0.0364 -0.8504  0.0000  0.0000  0.0604
  45.  C 5 (pz)  -0.1100 -0.5821  0.0095 -0.0254 -0.2969  0.0000  0.0000 -0.2356
  46.  C 6 (S)   -0.0106 -0.0065 -0.0003 -0.0014 -0.0125  0.0000  0.0000 -0.0009
  47.  C 6 (S)   -0.0051 -0.0049 -0.0008 -0.0154 -0.0214  0.0000  0.0000 -0.0118
  48.  C 6 (px)   0.0000  0.0000  0.0000  0.0000  0.0000 -0.0076  0.0028  0.0000
  49.  C 6 (py)   0.0205  0.0301 -0.0001  0.0004 -0.0132  0.0000  0.0000 -0.0071
  50.  C 6 (pz)   0.0246  0.0638  0.0000 -0.0018  0.0221  0.0000  0.0000 -0.0119
  51.  C 6 (S)    0.2512  1.3238 -0.0153  0.0673  0.9924  0.0000  0.0000  0.1540
  52.  C 6 (px)   0.0000  0.0000  0.0000  0.0000  0.0000  0.0035  0.0963  0.0000
  53.  C 6 (py)  -0.0852 -0.5645  0.0021 -0.0441 -0.3111  0.0000  0.0000 -0.0049
  54.  C 6 (pz)   0.1334  0.5201 -0.0020  0.0379  0.3127  0.0000  0.0000  0.1414
  55.  C 7 (S)    0.0076  0.0163  0.0043  0.0408 -0.0591  0.0000  0.0000 -0.0063
  56.  C 7 (S)    0.0105 -0.0252  0.0007 -0.0822 -0.1166  0.0000  0.0000  0.0647
  57.  C 7 (px)   0.0000  0.0000  0.0000  0.0000  0.0000 -0.0790  0.0532  0.0000
  58.  C 7 (py)  -0.0336 -0.0991 -0.0047 -0.0936  0.0627  0.0000  0.0000 -0.0450
  59.  C 7 (pz)  -0.0013  0.0874  0.0102  0.1741 -0.0772  0.0000  0.0000 -0.1108
  60.  C 7 (S)   -0.2816 -1.9117 -0.0196 -0.2186  1.8609  0.0000  0.0000 -0.3632
  61.  C 7 (px)   0.0000  0.0000  0.0000  0.0000  0.0000 -0.0968  0.4750  0.0000
  62.  C 7 (py)  -0.0341 -0.0233 -0.0100 -0.2208  0.0738  0.0000  0.0000  0.2547
  63.  C 7 (pz)   0.1286  0.8305  0.0321  0.2078 -1.3224  0.0000  0.0000  0.2220
  64.  C 8 (S)    0.0001  0.0006 -0.0007  0.0029  0.0030  0.0000  0.0000 -0.0111
  65.  C 8 (S)    0.0004 -0.0076 -0.0004 -0.0025  0.0099  0.0000  0.0000 -0.0121
  66.  C 8 (px)   0.0000  0.0000  0.0000  0.0000  0.0000  0.0117 -0.0079  0.0000
  67.  C 8 (py)   0.0024 -0.0052  0.0007 -0.0126 -0.0004  0.0000  0.0000  0.0208
  68.  C 8 (pz)   0.0042  0.0148  0.0041  0.0417  0.0265  0.0000  0.0000  0.0047
  69.  C 8 (S)    0.0917  0.3480 -0.0024 -0.0433 -0.0075  0.0000  0.0000  0.3956
  70.  C 8 (px)   0.0000  0.0000  0.0000  0.0000  0.0000 -0.0045 -0.1766  0.0000
  71.  C 8 (py)   0.0738  0.3121  0.0016 -0.0278  0.0329  0.0000  0.0000  0.3383
  72.  C 8 (pz)  -0.0766 -0.3833  0.0217 -0.1020 -1.2610  0.0000  0.0000  0.2571
  73.  C 9 (S)    0.0002  0.0008 -0.0002 -0.0014 -0.0149  0.0000  0.0000  0.0005
  74.  C 9 (S)    0.0009  0.0036 -0.0005 -0.0161 -0.0408  0.0000  0.0000  0.0141
  75.  C 9 (px)   0.0000  0.0000  0.0000  0.0000  0.0000 -0.0089 -0.0043  0.0000
  76.  C 9 (py)   0.0017  0.0090  0.0003 -0.0030  0.0084  0.0000  0.0000  0.0192
  77.  C 9 (pz)  -0.0017 -0.0086  0.0001 -0.0002 -0.0038  0.0000  0.0000  0.0045
  78.  C 9 (S)    0.0003 -0.0039 -0.0162  0.0776  1.0611  0.0000  0.0000 -0.1732
  79.  C 9 (px)   0.0000  0.0000  0.0000  0.0000  0.0000  0.0080  0.1266  0.0000
  80.  C 9 (py)  -0.0333 -0.1589 -0.0047  0.1014  0.7079  0.0000  0.0000 -0.2737
  81.  C 9 (pz)  -0.0685 -0.3308  0.0013 -0.0200 -0.1325  0.0000  0.0000 -0.0476
  82.  C10 (S)   -0.0027 -0.0127 -0.0009  0.0042  0.0116  0.0000  0.0000 -0.0120
  83.  C10 (S)   -0.0099 -0.0277 -0.0004  0.0038  0.0414  0.0000  0.0000 -0.0060
  84.  C10 (px)   0.0000  0.0000  0.0000  0.0000  0.0000  0.0097 -0.0178  0.0000
  85.  C10 (py)   0.0021  0.0356  0.0012 -0.0179 -0.0296  0.0000  0.0000  0.0354
  86.  C10 (pz)   0.0033  0.0055 -0.0047 -0.0399  0.0083  0.0000  0.0000 -0.0086
  87.  C10 (S)    0.1045  0.6557  0.0066 -0.1438 -0.7589  0.0000  0.0000  0.4330
  88.  C10 (px)   0.0000  0.0000  0.0000  0.0000  0.0000  0.0002 -0.1347  0.0000
  89.  C10 (py)   0.0256  0.1802  0.0043 -0.0712 -0.2601  0.0000  0.0000  0.1596
  90.  C10 (pz)  -0.0742 -0.3816 -0.0165  0.0249  0.7360  0.0000  0.0000 -0.1850
  91.  C11 (S)    0.0002  0.0010  0.0000 -0.0001 -0.0018  0.0000  0.0000  0.0008
  92.  C11 (S)    0.0007  0.0035  0.0002  0.0006 -0.0026  0.0000  0.0000  0.0025
  93.  C11 (px)   0.0000  0.0000  0.0000  0.0000  0.0000  0.0007 -0.0033  0.0000
  94.  C11 (py)  -0.0017 -0.0075  0.0004  0.0018  0.0036  0.0000  0.0000 -0.0046
  95.  C11 (pz)  -0.0013 -0.0050  0.0000  0.0007  0.0021  0.0000  0.0000 -0.0002
  96.  C11 (S)   -0.0283 -0.1360 -0.0002  0.0434  0.2262  0.0000  0.0000 -0.1426
  97.  C11 (px)   0.0000  0.0000  0.0000  0.0000  0.0000 -0.0044 -0.0334  0.0000
  98.  C11 (py)  -0.0010 -0.0033 -0.0001  0.0228  0.1258  0.0000  0.0000 -0.0614
  99.  C11 (pz)   0.0325  0.1591  0.0002 -0.0005 -0.0086  0.0000  0.0000  0.0284
 100.  H12 (S)   -0.0028 -0.0133  0.0000 -0.0006 -0.0010  0.0000  0.0000 -0.0001
 101.  H12 (S)   -0.0080 -0.0387 -0.0001  0.0019  0.0170  0.0000  0.0000 -0.0062
 102.  C13 (S)   -0.0002 -0.0010  0.0000  0.0002  0.0005  0.0000  0.0000 -0.0008
[...]
  47. CR (   1) C  15                / 77. RY*(   2) C   8                    1.39   11.36    0.112
  47. CR (   1) C  15                / 78. RY*(   3) C   8                    0.73   11.69    0.082
  47. CR (   1) C  15                / 97. RY*(   1) C  14                    0.69   11.24    0.079
  47. CR (   1) C  15                / 98. RY*(   2) C  14                    2.70   10.80    0.153
  47. CR (   1) C  15                / 99. RY*(   3) C  14                    0.59   11.57    0.074
  47. CR (   1) C  15                /113. RY*(   1) H  24                    1.55   10.74    0.115
  47. CR (   1) C  15                /143. BD*(   1) C  14 - C  15            0.56   10.56    0.069
 115. BD*(   2) C   1 - C   2        / 50. RY*(   3) C   1                    1.05    0.77    0.068
 115. BD*(   2) C   1 - C   2        / 55. RY*(   4) C   2                    1.05    0.77    0.068
 121. BD*(   2) C   3 - C   4        / 59. RY*(   4) C   3                    1.04    0.84    0.057
 121. BD*(   2) C   3 - C   4        / 63. RY*(   4) C   4                    1.06    0.85    0.058
 126. BD*(   2) C   5 - C   6        / 67. RY*(   4) C   5                    1.04    0.77    0.067
 126. BD*(   2) C   5 - C   6        / 71. RY*(   4) C   6                    1.04    0.77    0.067
 130. BD*(   2) C   7 - C  10        / 75. RY*(   4) C   7                    0.80    0.76    0.070
 130. BD*(   2) C   7 - C  10        / 87. RY*(   4) C  10                    0.80    0.76    0.070
 133. BD*(   2) C   8 - C   9        / 79. RY*(   4) C   8                    1.06    0.85    0.058
 133. BD*(   2) C   8 - C   9        / 83. RY*(   4) C   9                    1.04    0.84    0.057
 140. BD*(   2) C  11 - C  13        / 91. RY*(   4) C  11                    1.05    0.77    0.068
 140. BD*(   2) C  11 - C  13        / 95. RY*(   3) C  13                    1.05    0.77    0.068
 144. BD*(   2) C  14 - C  15        /100. RY*(   4) C  14                    1.04    0.77    0.067
 144. BD*(   2) C  14 - C  15        /104. RY*(   4) C  15                    1.04    0.77    0.067


 Natural Bond Orbitals (Summary):

                                                            Principal Delocalizations
           NBO                        Occupancy    Energy   (geminal,vicinal,remote)
 ====================================================================================
 Molecular unit  1  (C14H10)
     1. BD (   1) C   1 - C   2          1.98029    -0.71696  118(g),116(g),122(v),128(v)
                                                    119(g),57(v),117(g),69(v)
                                                    56(v),68(v)
     2. BD (   2) C   1 - C   2          1.71920    -0.25307  121(v),126(v),71(v)
     3. BD (   1) C   1 - C   6          1.97954    -0.69598  114(g),125(g),119(v),127(v)
                                                    53(v),65(v),117(g),128(g)
                                                    64(v),52(v)
     4. BD (   1) C   1 - H  17          1.98411    -0.52690  118(v),125(v),114(g),116(g)
                                                    52(v),68(v)
     5. BD (   1) C   2 - C   3          1.97493    -0.69458  120(g),122(g),114(g),124(v)
                                                    117(v),49(v),72(v),129(v)
                                                    61(v),119(g),48(v),60(v)
     6. BD (   1) C   2 - H  18          1.98317    -0.52558  120(v),116(v),114(g),56(v)
                                                    118(g),48(v)
     7. BD (   1) C   3 - C   4          1.96796    -0.68614  118(g),123(g),122(g),124(g)
                                                    134(v),127(v),76(v),119(v)
                                                    131(v),65(v),72(v),52(v)
                                                    53(v),64(v)
     8. BD (   2) C   3 - C   4          1.56536    -0.23812  126(v),115(v),130(v),133(v)
                                                    55(v),67(v),75(v)
     9. BD (   1) C   3 - C   7          1.97454    -0.67981  129(g),118(g),120(g),137(v)
                                                    85(v),123(v),61(v),52(v)
                                                    114(v),131(g)
    10. BD (   1) C   4 - C   5          1.97449    -0.69515  120(g),124(g),125(g),122(v)
                                                    128(v),69(v),132(v),76(v)
                                                    127(g),57(v),68(v),56(v)
                                                    77(v)
    11. BD (   1) C   4 - C   8          1.97197    -0.67216  123(g),134(g),120(g),132(g)
                                                    118(v),136(v),56(v),80(v)
                                                    125(v),143(v),64(v),101(v)
    12. BD (   1) C   5 - C   6          1.97964    -0.71538  123(g),116(g),124(v),60(v)
                                                    117(v),127(g),128(g),49(v)
                                                    48(v),61(v)
    13. BD (   2) C   5 - C   6          1.71816    -0.25299  121(v),115(v),50(v)
    14. BD (   1) C   5 - H  19          1.98154    -0.52787  120(v),116(v),125(g),123(g)
                                                    61(v),68(v),146(r)
    15. BD (   1) C   6 - H  20          1.98418    -0.52631  123(v),114(v),125(g),64(v)
                                                    48(v),116(g)
    16. BD (   1) C   7 - C  10          1.98043    -0.73464  122(g),135(g),57(v),81(v)
                                                    118(v),136(v),131(g),137(g)
    17. BD (   2) C   7 - C  10          1.80324    -0.26080  121(v),133(v)
    18. BD (   1) C   7 - H  16          1.98239    -0.52593  135(v),120(v),129(g),84(v)
                                                    57(v),122(g)
    19. BD (   1) C   8 - C   9          1.96796    -0.68614  136(g),134(g),135(g),124(g)
                                                    123(v),146(v),60(v),138(v)
                                                    137(v),102(v),84(v),88(v)
                                                    89(v),101(v)
    20. BD (   2) C   8 - C   9          1.56536    -0.23812  144(v),140(v),130(v),121(v)
                                                    91(v),104(v),87(v)
    21. BD (   1) C   8 - C  15          1.97449    -0.69515  132(g),124(g),143(g),135(v)
                                                    145(v),98(v),120(v),60(v)
                                                    146(g),81(v),97(v),80(v)
                                                    61(v)
    22. BD (   1) C   9 - C  10          1.97454    -0.67981  129(g),136(g),132(g),131(v)
                                                    73(v),134(v),77(v),88(v)
                                                    139(v),137(g)
    23. BD (   1) C   9 - C  11          1.97493    -0.69458  132(g),135(g),139(g),124(v)
                                                    142(v),94(v),84(v),129(v)
                                                    77(v),138(g),93(v),76(v)
    24. BD (   1) C  10 - H  21          1.98239    -0.52593  122(v),132(v),129(g),72(v)
                                                    81(v),135(g)
    25. BD (   1) C  11 - H  12          1.98317    -0.52558  132(v),141(v),139(g),80(v)
                                                    136(g),93(v)
    26. BD (   1) C  11 - C  13          1.98029    -0.71696  136(g),141(g),135(v),145(v)
                                                    138(g),81(v),142(g),98(v)
                                                    80(v),97(v)
    27. BD (   2) C  11 - C  13          1.71920    -0.25307  133(v),144(v),100(v)
    28. BD (   1) C  13 - C  14          1.97954    -0.69598  139(g),143(g),138(v),146(v)
                                                    89(v),102(v),142(g),145(g)
                                                    101(v),88(v)
    29. BD (   1) C  13 - H  22          1.98411    -0.52690  136(v),143(v),139(g),141(g)
                                                    88(v),97(v)
    30. BD (   1) C  14 - C  15          1.97964    -0.71538  134(g),141(g),124(v),76(v)
                                                    142(v),146(g),145(g),94(v)
                                                    93(v),77(v)
    31. BD (   2) C  14 - C  15          1.71816    -0.25299  133(v),140(v),95(v)
    32. BD (   1) C  14 - H  23          1.98418    -0.52631  134(v),139(v),143(g),101(v)
                                                    93(v),141(g)
    33. BD (   1) C  15 - H  24          1.98154    -0.52787  132(v),141(v),143(g),134(g)
                                                    77(v),97(v),127(r)
    34. CR (   1) C   1                  1.99858    -9.96628  69(v),53(v),106(v),52(v)
                                                    54(v),70(v),114(g)
    35. CR (   1) C   2                  1.99861    -9.96461  49(v),57(v),107(v),58(v)
                                                    56(v),48(v),51(v),114(g)
    36. CR (   1) C   3                  1.99866    -9.96863  53(v),60(v),73(v),74(v)
                                                    62(v)
    37. CR (   1) C   4                  1.99871    -9.97142  65(v),57(v),77(v),56(v)
                                                    78(v),120(g),66(v)
    38. CR (   1) C   5                  1.99862    -9.96518  69(v),108(v),61(v),60(v)
                                                    62(v),68(v),70(v),125(g)
    39. CR (   1) C   6                  1.99860    -9.96713  65(v),49(v),109(v),66(v)
                                                    51(v),125(g),64(v)
    40. CR (   1) C   7                  1.99860    -9.96462  56(v),85(v),84(v),105(v)
                                                    86(v),129(g),58(v)
    41. CR (   1) C   8                  1.99871    -9.97142  102(v),81(v),61(v),80(v)
                                                    62(v),132(g),103(v)
    42. CR (   1) C   9                  1.99866    -9.96863  89(v),76(v),85(v),86(v)
                                                    78(v)
    43. CR (   1) C  10                  1.99860    -9.96462  80(v),73(v),72(v),110(v)
                                                    74(v),129(g),82(v)
    44. CR (   1) C  11                  1.99861    -9.96461  94(v),81(v),92(v),82(v)
                                                    80(v),93(v),96(v),139(g)
    45. CR (   1) C  13                  1.99858    -9.96628  98(v),89(v),111(v),88(v)
                                                    90(v),99(v),139(g)
    46. CR (   1) C  14                  1.99860    -9.96713  102(v),94(v),112(v),103(v)
                                                    96(v),143(g),101(v)
    47. CR (   1) C  15                  1.99862    -9.96518  98(v),113(v),77(v),76(v)
                                                    78(v),97(v),99(v),143(g)
    48. RY*(   1) C   1                  0.00423     1.27234   
    49. RY*(   2) C   1                  0.00291     0.82856   
    50. RY*(   3) C   1                  0.00024     0.79662   
    51. RY*(   4) C   1                  0.00022     1.61185   
    52. RY*(   1) C   2                  0.00449     1.26802   
    53. RY*(   2) C   2                  0.00289     0.86806   
    54. RY*(   3) C   2                  0.00026     1.64022   
    55. RY*(   4) C   2                  0.00024     0.79759   
    56. RY*(   1) C   3                  0.00510     1.36235   
    57. RY*(   2) C   3                  0.00504     1.32053   
    58. RY*(   3) C   3                  0.00033     1.68799   
    59. RY*(   4) C   3                  0.00015     0.87248   
    60. RY*(   1) C   4                  0.00522     1.35221   
    61. RY*(   2) C   4                  0.00490     1.39474   
    62. RY*(   3) C   4                  0.00036     1.72585   
    63. RY*(   4) C   4                  0.00016     0.87840   
    64. RY*(   1) C   5                  0.00419     1.29726   
    65. RY*(   2) C   5                  0.00287     0.90094   
    66. RY*(   3) C   5                  0.00025     1.64457   
    67. RY*(   4) C   5                  0.00021     0.80140   
    68. RY*(   1) C   6                  0.00434     1.27188   
    69. RY*(   2) C   6                  0.00296     0.83604   
    70. RY*(   3) C   6                  0.00024     1.60946   
    71. RY*(   4) C   6                  0.00024     0.79705   
    72. RY*(   1) C   7                  0.00440     1.25223   
    73. RY*(   2) C   7                  0.00300     0.88192   
    74. RY*(   3) C   7                  0.00028     1.66512   
    75. RY*(   4) C   7                  0.00028     0.79803   
    76. RY*(   1) C   8                  0.00522     1.35221   
    77. RY*(   2) C   8                  0.00490     1.39474   
    78. RY*(   3) C   8                  0.00036     1.72585   
    79. RY*(   4) C   8                  0.00016     0.87840   
    80. RY*(   1) C   9                  0.00510     1.36235   
    81. RY*(   2) C   9                  0.00504     1.32053   
    82. RY*(   3) C   9                  0.00033     1.68799   
    83. RY*(   4) C   9                  0.00015     0.87248   
    84. RY*(   1) C  10                  0.00440     1.25223   
    85. RY*(   2) C  10                  0.00300     0.88192   
    86. RY*(   3) C  10                  0.00028     1.66512   
    87. RY*(   4) C  10                  0.00028     0.79803   
    88. RY*(   1) C  11                  0.00449     1.26802   
    89. RY*(   2) C  11                  0.00289     0.86806   
    90. RY*(   3) C  11                  0.00026     1.64022   
    91. RY*(   4) C  11                  0.00024     0.79759   
    92. RY*(   1) H  12                  0.00093     0.71357   
    93. RY*(   1) C  13                  0.00423     1.27234   
    94. RY*(   2) C  13                  0.00291     0.82856   
    95. RY*(   3) C  13                  0.00024     0.79662   
    96. RY*(   4) C  13                  0.00022     1.61185   
    97. RY*(   1) C  14                  0.00434     1.27188   
    98. RY*(   2) C  14                  0.00296     0.83604   
    99. RY*(   3) C  14                  0.00024     1.60946   
   100. RY*(   4) C  14                  0.00024     0.79705   
   101. RY*(   1) C  15                  0.00419     1.29726   
   102. RY*(   2) C  15                  0.00287     0.90094   
   103. RY*(   3) C  15                  0.00025     1.64457   
   104. RY*(   4) C  15                  0.00021     0.80140   
   105. RY*(   1) H  16                  0.00094     0.71275   
   106. RY*(   1) H  17                  0.00078     0.69920   
   107. RY*(   1) H  18                  0.00093     0.71357   
   108. RY*(   1) H  19                  0.00089     0.77751   
   109. RY*(   1) H  20                  0.00079     0.70028   
   110. RY*(   1) H  21                  0.00094     0.71275   
   111. RY*(   1) H  22                  0.00078     0.69920   
   112. RY*(   1) H  23                  0.00079     0.70028   
   113. RY*(   1) H  24                  0.00089     0.77751   
   114. BD*(   1) C   1 - C   2          0.01516     0.59860   
   115. BD*(   2) C   1 - C   2          0.27896     0.03106  140(r),126(v),121(v),50(g)
                                                    55(g)
   116. BD*(   1) C   1 - C   6          0.01749     0.55498   
   117. BD*(   1) C   1 - H  17          0.01116     0.46921   
   118. BD*(   1) C   2 - C   3          0.02175     0.54919   
   119. BD*(   1) C   2 - H  18          0.01192     0.46224   
   120. BD*(   1) C   3 - C   4          0.02879     0.53908   
   121. BD*(   2) C   3 - C   4          0.43489     0.02781  133(v),126(v),115(v),130(v)
                                                    63(g),59(g),144(r)
   122. BD*(   1) C   3 - C   7          0.02304     0.51964   
   123. BD*(   1) C   4 - C   5          0.02219     0.54977   
   124. BD*(   1) C   4 - C   8          0.02808     0.50004   
   125. BD*(   1) C   5 - C   6          0.01530     0.59606   
   126. BD*(   2) C   5 - C   6          0.28201     0.03027  144(r),115(v),121(v),67(g)
                                                    71(g)
   127. BD*(   1) C   5 - H  19          0.01310     0.46874   
   128. BD*(   1) C   6 - H  20          0.01096     0.46886   
   129. BD*(   1) C   7 - C  10          0.01383     0.63502   
   130. BD*(   2) C   7 - C  10          0.19657     0.03773  121(v),133(v),75(g),87(g)
   131. BD*(   1) C   7 - H  16          0.01199     0.46142   
   132. BD*(   1) C   8 - C   9          0.02879     0.53908   
   133. BD*(   2) C   8 - C   9          0.43489     0.02781  121(v),144(v),140(v),130(v)
                                                    79(g),83(g),126(r)
   134. BD*(   1) C   8 - C  15          0.02219     0.54977   
   135. BD*(   1) C   9 - C  10          0.02304     0.51964   
   136. BD*(   1) C   9 - C  11          0.02175     0.54919   
   137. BD*(   1) C  10 - H  21          0.01199     0.46142   
   138. BD*(   1) C  11 - H  12          0.01192     0.46224   
   139. BD*(   1) C  11 - C  13          0.01516     0.59860   
   140. BD*(   2) C  11 - C  13          0.27896     0.03106  115(r),144(v),133(v),95(g)
                                                    91(g)
   141. BD*(   1) C  13 - C  14          0.01749     0.55498   
   142. BD*(   1) C  13 - H  22          0.01116     0.46921   
   143. BD*(   1) C  14 - C  15          0.01530     0.59606   
   144. BD*(   2) C  14 - C  15          0.28201     0.03027  126(r),140(v),133(v),104(g)
                                                    100(g)
   145. BD*(   1) C  14 - H  23          0.01096     0.46886   
   146. BD*(   1) C  15 - H  24          0.01310     0.46874   
       -------------------------------
              Total Lewis   91.23539  ( 97.0589%)
        Valence non-Lewis    2.63590  (  2.8041%)
        Rydberg non-Lewis    0.12871  (  0.1369%)
       -------------------------------
            Total unit  1   94.00000  (100.0000%)
           Charge unit  1    0.00000
 1|1|UNPC-X500|SP|RB3LYP|3-21G|C14H10|SOBEREVA|14-May-2017|0||# b3lyp/3
 -21g pop=nboread||b3lyp/3-21g opted||0,1|C,0,0.,3.560617,-0.297229|C,0
 ,0.,2.839325,0.879793|C,0,0.,1.423614,0.867715|C,0,0.,0.729862,-0.3807
 |C,0,0.,1.499244,-1.569318|C,0,0.,2.881518,-1.53149|C,0,0.,0.679265,2.
 097177|C,0,0.,-0.729862,-0.3807|C,0,0.,-1.423614,0.867715|C,0,0.,-0.67
 9265,2.097177|C,0,0.,-2.839325,0.879793|H,0,0.,-3.349278,1.837449|C,0,
 0.,-3.560617,-0.297229|C,0,0.,-2.881518,-1.53149|C,0,0.,-1.499244,-1.5
 69318|H,0,0.,1.233564,3.029684|H,0,0.,4.644007,-0.275882|H,0,0.,3.3492
 78,1.837449|H,0,0.,1.002038,-2.530513|H,0,0.,3.446437,-2.456427|H,0,0.
 ,-1.233564,3.029684|H,0,0.,-4.644007,-0.275882|H,0,0.,-3.446437,-2.456
 427|H,0,0.,-1.002038,-2.530513||Version=IA32W-G09RevD.01|State=1-A1|HF
 =-536.5690576|RMSD=7.477e-009|Dipole=0.,0.,-0.0129066|Quadrupole=-9.92
 93432,5.1781274,4.7512158,0.,0.,0.|PG=C02V [SGV(C14H10)]||@


 IF YOU BELIEVE CERTAIN WORDS, YOU BELIEVE THEIR HIDDEN ARGUMENTS.
 WHEN YOU BELIEVE SOMETHING IS RIGHT OR WRONG, TRUE OR FALSE, 
 YOU BELIEVE THE ASSUMPTIONS IN THE WORDS WHICH EXPRESS THE ARGUMENTS.
 SUCH ASSUMPTIONS ARE OFTEN FULL OF HOLES, BUT REMAIN MOST PRECIOUS 
 TO THE CONVINCED.

                 -- THE OPEN-ENDED PROOF FROM THE PANOPLIA PROPHETICA
                    CHILDREN OF DUNE BY FRANK HERBERT
 Job cpu time:       0 days  0 hours  0 minutes 10.0 seconds.
 File lengths (MBytes):  RWF=     10 Int=      0 D2E=      0 Chk=      2 Scr=      1
 Normal termination of Gaussian 09 at Sun May 14 02:36:48 2017.
