test                                                                    
FOpt      RB3LYP                                                      6-311G(d,p)         
Number of atoms                            I                3
Info1-9                                    I   N=           9
          10          10           0           0           0         110
           2          18        -502
Full Title                                 C   N=           1
test        
Route                                      C   N=           3
# B3LYP/6-311G** opt em=GD3BJ       
Charge                                     I                0
Multiplicity                               I                1
Number of electrons                        I               10
Number of alpha electrons                  I                5
Number of beta electrons                   I                5
Number of basis functions                  I               30
Number of independent functions            I               30
Number of point charges in /Mol/           I                0
Number of translation vectors              I                0
Atomic numbers                             I   N=           3
           8           1           1
Nuclear charges                            R   N=           3
  8.00000000E+00  1.00000000E+00  1.00000000E+00
Current cartesian coordinates              R   N=           9
 -8.69667879E-33  1.23410137E-31  2.24265480E-01 -1.10837494E-30  1.43073172E+00
 -8.97061918E-01 -1.75214102E-16 -1.43073172E+00 -8.97061918E-01
Number of symbols in /Mol/                 I                0
Force Field                                I                0
Atom Types                                 C   N=           3
                                    
Int Atom Types                             I   N=           3
           0           0           0
MM charges                                 R   N=           3
  0.00000000E+00  0.00000000E+00  0.00000000E+00
Integer atomic weights                     I   N=           3
          16           1           1
Real atomic weights                        R   N=           3
  1.59949146E+01  1.00782504E+00  1.00782504E+00
Atom fragment info                         I   N=           3
           0           0           0
Atom residue num                           I   N=           3
           0           0           0
Nuclear spins                              I   N=           3
           0           1           1
Nuclear ZEff                               R   N=           3
 -5.60000000E+00 -1.00000000E+00 -1.00000000E+00
Nuclear ZNuc                               R   N=           3
  8.00000000E+00  1.00000000E+00  1.00000000E+00
Nuclear QMom                               R   N=           3
  0.00000000E+00  0.00000000E+00  0.00000000E+00
Nuclear GFac                               R   N=           3
  0.00000000E+00  2.79284600E+00  2.79284600E+00
MicOpt                                     I   N=           3
          -1          -1          -1
Number of residues                         I                0
Number of secondary structures             I                0
Redundant internal dimensions              I   N=           4
           3           2           1           0
Redundant internal coordinate indices      I   N=          12
           1           2           0           0           1           3
           0           0           2           1           3           0
Redundant internal coordinates             R   N=           3
  1.81779217E+00  1.81779217E+00  1.81209295E+00
ZRed-IntVec                                I   N=           3
           0           0           0
ZRed-FPVec                                 R   N=           3
  0.00000000E+00  0.00000000E+00  0.00000000E+00
ZRed-Constraint1                           R   N=           3
  1.81113504E+00  1.81113504E+00  1.80405498E+00
ZRed-Constraint2                           R   N=           3
  0.00000000E+00  0.00000000E+00  0.00000000E+00
SymInf integers                            I   N=          26
           2           4           1           1           1          -1
          -1           1          -1           1           1           1
          -1           1           0           0           0           0
           0           0           0           0           0           0
           0           0
RotTr to input orientation                 R   N=          12
 -1.00000000E+00 -1.38140124E-15  3.39952991E-16 -1.38140124E-15  1.00000000E+00
 -1.25893656E-15 -3.39952991E-16 -1.25893656E-15 -1.00000000E+00  5.26296463E-17
  0.00000000E+00  2.70715436E-03
Number of contracted shells                I               13
Number of primitive shells                 I               24
Pure/Cartesian d shells                    I                0
Pure/Cartesian f shells                    I                0
Highest angular momentum                   I                2
Largest degree of contraction              I                6
Shell types                                I   N=          13
           0          -1          -1          -1          -2           0
           0           0           1           0           0           0
           1
Number of primitives per shell             I   N=          13
           6           3           1           1           1           3
           1           1           1           3           1           1
           1
Shell to atom map                          I   N=          13
           1           1           1           1           1           2
           2           2           2           3           3           3
           3
Primitive exponents                        R   N=          24
  8.58850000E+03  1.29723000E+03  2.99296000E+02  8.73771000E+01  2.56789000E+01
  3.74004000E+00  4.21175000E+01  9.62837000E+00  2.85332000E+00  9.05661000E-01
  2.55611000E-01  1.29200000E+00  3.38650000E+01  5.09479000E+00  1.15879000E+00
  3.25840000E-01  1.02741000E-01  7.50000000E-01  3.38650000E+01  5.09479000E+00
  1.15879000E+00  3.25840000E-01  1.02741000E-01  7.50000000E-01
Contraction coefficients                   R   N=          24
  1.89515008E-03  1.43859006E-02  7.07320031E-02  2.40001011E-01  5.94797026E-01
  2.80802012E-01  1.13889012E-01  9.20811101E-01 -3.27447036E-03  1.00000000E+00
  1.00000000E+00  1.00000000E+00  2.54938145E-02  1.90373109E-01  8.52161486E-01
  1.00000000E+00  1.00000000E+00  1.00000000E+00  2.54938145E-02  1.90373109E-01
  8.52161486E-01  1.00000000E+00  1.00000000E+00  1.00000000E+00
P(S=P) Contraction coefficients            R   N=          24
  0.00000000E+00  0.00000000E+00  0.00000000E+00  0.00000000E+00  0.00000000E+00
  0.00000000E+00  3.65113974E-02  2.37152983E-01  8.19701941E-01  1.00000000E+00
  1.00000000E+00  0.00000000E+00  0.00000000E+00  0.00000000E+00  0.00000000E+00
  0.00000000E+00  0.00000000E+00  0.00000000E+00  0.00000000E+00  0.00000000E+00
  0.00000000E+00  0.00000000E+00  0.00000000E+00  0.00000000E+00
Coordinates of each shell                  R   N=          39
 -1.24492790E-32 -2.14427688E-33  2.24265480E-01 -1.24492790E-32 -2.14427688E-33
  2.24265480E-01 -1.24492790E-32 -2.14427688E-33  2.24265480E-01 -1.24492790E-32
 -2.14427688E-33  2.24265480E-01 -1.24492790E-32 -2.14427688E-33  2.24265480E-01
  7.56721914E-31  1.43073172E+00 -8.97061918E-01  7.56721914E-31  1.43073172E+00
 -8.97061918E-01  7.56721914E-31  1.43073172E+00 -8.97061918E-01  7.56721914E-31
  1.43073172E+00 -8.97061918E-01 -1.75214102E-16 -1.43073172E+00 -8.97061918E-01
 -1.75214102E-16 -1.43073172E+00 -8.97061918E-01 -1.75214102E-16 -1.43073172E+00
 -8.97061918E-01 -1.75214102E-16 -1.43073172E+00 -8.97061918E-01
Num ILSW                                   I              100
ILSW                                       I   N=         100
           0           0           0           1           2           0
           0           0           0           0         402          -1
           5           0           0           0           2           0
           0           0           1           0           1           0
           1           0           0           0           0           0
           0           0      100000           0          -1           0
           0           0           0           0           0           0
           0           0           0           1           0           0
           0 -2000000000           1           0           0           0
           0           0         141          52           0           0
           0           0           5           0           0           0
           0           0           0           0           0           1
           0           0           0           0           0           0
           0           0           0           0           0           0
           0           0           0           0           0           0
           0           0           0           0           0           0
           0           0           0           0
Num RLSW                                   I               52
RLSW                                       R   N=          52
  8.00000000E-01  7.20000000E-01  1.00000000E+00  8.10000000E-01  2.00000000E-01
  0.00000000E+00  0.00000000E+00  1.00000000E+00  0.00000000E+00  0.00000000E+00
  0.00000000E+00  0.00000000E+00  1.00000000E+00  0.00000000E+00  0.00000000E+00
  0.00000000E+00  0.00000000E+00  1.00000000E+00  0.00000000E+00  0.00000000E+00
  0.00000000E+00  0.00000000E+00  1.00000000E+00  0.00000000E+00  0.00000000E+00
  0.00000000E+00  0.00000000E+00  1.00000000E+00  0.00000000E+00  0.00000000E+00
  0.00000000E+00  0.00000000E+00  1.00000000E+00  0.00000000E+00  0.00000000E+00
  0.00000000E+00  0.00000000E+00  0.00000000E+00  1.00000000E+00  1.00000000E+00
  0.00000000E+00  1.00000000E+00  0.00000000E+00  0.00000000E+00  0.00000000E+00
  0.00000000E+00  0.00000000E+00  0.00000000E+00  0.00000000E+00  0.00000000E+00
  0.00000000E+00  0.00000000E+00
MxBond                                     I                2
NBond                                      I   N=           3
           2           1           1
IBond                                      I   N=           6
           2           3           1           0           1           0
RBond                                      R   N=           6
  1.00000000E+00  1.00000000E+00  1.00000000E+00  0.00000000E+00  1.00000000E+00
  0.00000000E+00
Virial Ratio                               R      2.001679864336274E+00
SCF Energy                                 R     -7.644802247142755E+01
Total Energy                               R     -7.644802247142755E+01
RMS Force                                  R      2.591449578436024E-05
RMS Density                                R      1.426034363871625E-09
Job Status                                 I                1
Nuclear derivative order                   I                1
External E-field                           R   N=          35
  0.00000000E+00  0.00000000E+00  0.00000000E+00  0.00000000E+00  0.00000000E+00
  0.00000000E+00  0.00000000E+00  0.00000000E+00  0.00000000E+00  0.00000000E+00
  0.00000000E+00  0.00000000E+00  0.00000000E+00  0.00000000E+00  0.00000000E+00
  0.00000000E+00  0.00000000E+00  0.00000000E+00  0.00000000E+00  0.00000000E+00
  0.00000000E+00  0.00000000E+00  0.00000000E+00  0.00000000E+00  0.00000000E+00
  0.00000000E+00  0.00000000E+00  0.00000000E+00  0.00000000E+00  0.00000000E+00
  0.00000000E+00  0.00000000E+00  0.00000000E+00  0.00000000E+00  0.00000000E+00
IOpCl                                      I                0
IROHF                                      I                0
Alpha Orbital Energies                     R   N=          30
 -1.91026643E+01 -1.00264848E+00 -5.21619167E-01 -3.76469863E-01 -2.99422567E-01
  2.86324536E-02  1.03933436E-01  3.78266919E-01  4.23935071E-01  7.59953018E-01
  7.64232530E-01  8.62145356E-01  1.06654400E+00  1.23993625E+00  1.26835054E+00
  1.45902114E+00  1.65872790E+00  1.92099999E+00  2.05066758E+00  2.28832950E+00
  2.47949948E+00  3.11243059E+00  3.15467097E+00  3.31978631E+00  3.58954060E+00
  3.82247282E+00  4.76466150E+00  5.18699433E+00  5.60588024E+00  4.98422469E+01
Alpha MO coefficients                      R   N=         900
  5.51306909E-01  4.69850890E-01  0.00000000E+00  0.00000000E+00 -1.29395883E-03
  1.24426696E-02  0.00000000E+00  0.00000000E+00 -6.63320295E-04 -3.06740571E-03
  0.00000000E+00  0.00000000E+00 -1.20100335E-04  5.05457130E-05  0.00000000E+00
  0.00000000E+00 -4.36837677E-04  0.00000000E+00 -7.04751065E-05 -9.21574261E-04
  7.18239238E-04  0.00000000E+00  9.26454476E-04 -7.51136839E-04 -7.04751065E-05
 -9.21574261E-04  7.18239238E-04  0.00000000E+00 -9.26454476E-04 -7.51136839E-04
 -1.15644254E-01 -1.85039610E-01  0.00000000E+00  0.00000000E+00 -5.48774364E-02
  5.37198826E-01  0.00000000E+00  0.00000000E+00 -8.35730846E-02  3.54330398E-01
  0.00000000E+00  0.00000000E+00 -2.91399821E-02  4.04045174E-03  0.00000000E+00
  0.00000000E+00 -8.99854718E-03  0.00000000E+00  1.00099450E-01  8.39625606E-02
  3.92111788E-03  0.00000000E+00 -2.29025891E-02  1.29175024E-02  1.00099450E-01
  8.39625606E-02  3.92111788E-03  0.00000000E+00  2.29025891E-02  1.29175024E-02
  0.00000000E+00  0.00000000E+00  0.00000000E+00  2.39643459E-01  0.00000000E+00
  0.00000000E+00  0.00000000E+00  3.42868882E-01  0.00000000E+00  0.00000000E+00
  0.00000000E+00  2.08598878E-01  0.00000000E+00  0.00000000E+00  0.00000000E+00
 -2.50148172E-02  0.00000000E+00  0.00000000E+00  1.54648985E-01  2.02743892E-01
  8.25538184E-02  0.00000000E+00 -1.32578236E-02  2.27819522E-02 -1.54648985E-01
 -2.02743892E-01 -8.25538184E-02  0.00000000E+00 -1.32578236E-02 -2.27819522E-02
 -4.53042598E-02 -7.35822477E-02  0.00000000E+00  0.00000000E+00  2.62807909E-01
  2.16952994E-01  0.00000000E+00  0.00000000E+00  3.59014958E-01  3.65361265E-01
  0.00000000E+00  0.00000000E+00  3.35017964E-01 -1.72190626E-02  0.00000000E+00
  0.00000000E+00  1.55254063E-03  0.00000000E+00 -8.82852558E-02 -1.43906523E-01
 -4.03609488E-02  0.00000000E+00  2.66032342E-02  1.31717132E-02 -8.82852558E-02
 -1.43906523E-01 -4.03609488E-02  0.00000000E+00 -2.66032342E-02  1.31717132E-02
  0.00000000E+00  0.00000000E+00  3.04517206E-01  0.00000000E+00  0.00000000E+00
  0.00000000E+00  4.21600168E-01  0.00000000E+00  0.00000000E+00  0.00000000E+00
  4.72879496E-01  0.00000000E+00  0.00000000E+00  0.00000000E+00 -1.78956641E-02
  0.00000000E+00  0.00000000E+00  0.00000000E+00  0.00000000E+00  0.00000000E+00
  0.00000000E+00  3.23269226E-02  0.00000000E+00  0.00000000E+00  0.00000000E+00
  0.00000000E+00  0.00000000E+00  3.23269226E-02  0.00000000E+00  0.00000000E+00
 -4.10203977E-02 -6.58622262E-02  0.00000000E+00  0.00000000E+00 -1.04142967E-01
  1.71031578E-01  0.00000000E+00  0.00000000E+00 -1.57269821E-01  8.13531311E-01
  0.00000000E+00  0.00000000E+00 -2.41020493E-01  6.58399209E-03  0.00000000E+00
  0.00000000E+00 -7.36798846E-04  0.00000000E+00 -4.44700871E-02 -5.13324298E-02
 -7.56685401E-01  0.00000000E+00 -1.51876961E-02  3.84500007E-03 -4.44700871E-02
 -5.13324298E-02 -7.56685401E-01  0.00000000E+00  1.51876961E-02  3.84500007E-03
  0.00000000E+00  0.00000000E+00  0.00000000E+00 -1.66729894E-01  0.00000000E+00
  0.00000000E+00  0.00000000E+00 -2.02848453E-01  0.00000000E+00  0.00000000E+00
  0.00000000E+00 -5.27591924E-01  0.00000000E+00  0.00000000E+00  0.00000000E+00
  1.70277890E-03  0.00000000E+00  0.00000000E+00  3.86129328E-02  4.11941133E-02
  1.38642454E+00  0.00000000E+00  1.59690375E-02 -1.64696225E-02 -3.86129328E-02
 -4.11941133E-02 -1.38642454E+00  0.00000000E+00  1.59690375E-02  1.64696225E-02
  0.00000000E+00  0.00000000E+00  0.00000000E+00 -1.26369354E-01  0.00000000E+00
  0.00000000E+00  0.00000000E+00 -1.94698095E-01  0.00000000E+00  0.00000000E+00
  0.00000000E+00 -9.07525911E-01  0.00000000E+00  0.00000000E+00  0.00000000E+00
 -2.09295777E-02  0.00000000E+00  0.00000000E+00  1.17973559E-01  1.35598644E+00
 -9.69527096E-01  0.00000000E+00 -2.29327639E-02 -1.00730111E-02 -1.17973559E-01
 -1.35598644E+00  9.69527096E-01  0.00000000E+00 -2.29327639E-02  1.00730111E-02
  3.27109998E-02  5.51939029E-02  0.00000000E+00  0.00000000E+00  1.21330016E-01
 -1.51848708E-01  0.00000000E+00  0.00000000E+00  2.19104712E-01 -1.08903290E+00
  0.00000000E+00  0.00000000E+00  8.74804004E-01 -1.03370209E-02  0.00000000E+00
  0.00000000E+00 -1.55779427E-02  0.00000000E+00  1.02396768E-01  1.65310312E+00
 -6.94520462E-01  0.00000000E+00 -1.47432900E-02  3.54455829E-02  1.02396768E-01
  1.65310312E+00 -6.94520462E-01  0.00000000E+00  1.47432900E-02  3.54455829E-02
  1.90200421E-02  3.32431801E-02  0.00000000E+00  0.00000000E+00 -2.52021521E-01
 -7.56201249E-02  0.00000000E+00  0.00000000E+00 -7.03616376E-01 -9.61966903E-01
  0.00000000E+00  0.00000000E+00  1.59763664E+00  2.37367056E-03  0.00000000E+00
  0.00000000E+00  1.07066835E-02  0.00000000E+00  2.54462647E-02  6.74639348E-01
  7.60039782E-02  0.00000000E+00 -1.17563889E-01  1.18110181E-01  2.54462647E-02
  6.74639348E-01  7.60039782E-02  0.00000000E+00  1.17563889E-01  1.18110181E-01
  0.00000000E+00  0.00000000E+00 -2.68462583E-01  0.00000000E+00  0.00000000E+00
  0.00000000E+00 -8.09470900E-01  0.00000000E+00  0.00000000E+00  0.00000000E+00
  1.12418808E+00  0.00000000E+00  0.00000000E+00  0.00000000E+00  8.00675808E-03
  0.00000000E+00  0.00000000E+00  0.00000000E+00  0.00000000E+00  0.00000000E+00
  0.00000000E+00 -6.78751088E-04  0.00000000E+00  0.00000000E+00  0.00000000E+00
  0.00000000E+00  0.00000000E+00 -6.78751088E-04  0.00000000E+00  0.00000000E+00
  0.00000000E+00  0.00000000E+00  0.00000000E+00 -2.55387559E-01  0.00000000E+00
  0.00000000E+00  0.00000000E+00 -6.87014923E-01  0.00000000E+00  0.00000000E+00
  0.00000000E+00  1.84371409E+00  0.00000000E+00  0.00000000E+00  0.00000000E+00
 -2.13795142E-02  0.00000000E+00  0.00000000E+00  8.05356975E-03 -4.25395075E-01
 -7.97550115E-01  0.00000000E+00  1.55878516E-01 -1.16260504E-01 -8.05356975E-03
  4.25395075E-01  7.97550115E-01  0.00000000E+00  1.55878516E-01  1.16260504E-01
  1.05064329E-01  2.04944682E-01  0.00000000E+00  0.00000000E+00  2.45745361E-02
 -1.53463846E+00  0.00000000E+00  0.00000000E+00 -1.46167028E-01  3.12714247E+00
  0.00000000E+00  0.00000000E+00 -6.11197492E-01  3.18993793E-02  0.00000000E+00
  0.00000000E+00 -8.23303079E-03  0.00000000E+00  2.59988868E-02 -8.77591875E-01
 -3.50914160E-01  0.00000000E+00  1.35538066E-01 -3.40886108E-01  2.59988868E-02
 -8.77591875E-01 -3.50914160E-01  0.00000000E+00 -1.35538066E-01 -3.40886108E-01
  3.41600479E-02  6.78416873E-02  0.00000000E+00  0.00000000E+00 -9.04262231E-03
 -5.96860036E-01  0.00000000E+00  0.00000000E+00 -6.18236739E-02  1.97909014E+00
  0.00000000E+00  0.00000000E+00 -1.27754556E+00 -1.28263310E-01  0.00000000E+00
  0.00000000E+00 -5.67175083E-02  0.00000000E+00  8.08537138E-02 -1.17098423E+00
  3.42662652E-02  0.00000000E+00  5.83168010E-01  4.18223161E-01  8.08537138E-02
 -1.17098423E+00  3.42662652E-02  0.00000000E+00 -5.83168010E-01  4.18223161E-01
  0.00000000E+00  0.00000000E+00  0.00000000E+00  0.00000000E+00  0.00000000E+00
  0.00000000E+00  0.00000000E+00  0.00000000E+00  0.00000000E+00  0.00000000E+00
  0.00000000E+00  0.00000000E+00  0.00000000E+00  0.00000000E+00  0.00000000E+00
  0.00000000E+00  0.00000000E+00  1.32080501E-01  0.00000000E+00  0.00000000E+00
  0.00000000E+00  6.86970223E-01  0.00000000E+00  0.00000000E+00  0.00000000E+00
  0.00000000E+00  0.00000000E+00 -6.86970223E-01  0.00000000E+00  0.00000000E+00
  0.00000000E+00  0.00000000E+00 -4.63632943E-02  0.00000000E+00  0.00000000E+00
  0.00000000E+00 -2.43533809E-02  0.00000000E+00  0.00000000E+00  0.00000000E+00
 -5.82530148E-01  0.00000000E+00  0.00000000E+00  0.00000000E+00 -1.55385798E-01
  0.00000000E+00  0.00000000E+00  0.00000000E+00  0.00000000E+00  0.00000000E+00
  0.00000000E+00  7.63224350E-01  0.00000000E+00  0.00000000E+00  0.00000000E+00
  0.00000000E+00  0.00000000E+00  7.63224350E-01  0.00000000E+00  0.00000000E+00
  0.00000000E+00  0.00000000E+00  0.00000000E+00 -1.57876550E-02  0.00000000E+00
  0.00000000E+00  0.00000000E+00 -3.92439073E-02  0.00000000E+00  0.00000000E+00
  0.00000000E+00  9.11345225E-01  0.00000000E+00  0.00000000E+00  0.00000000E+00
 -7.13635723E-02  0.00000000E+00  0.00000000E+00  1.86660384E-01 -7.50110244E-01
  1.75952000E-01  0.00000000E+00 -4.93697196E-01 -6.35293934E-01 -1.86660384E-01
  7.50110244E-01 -1.75952000E-01  0.00000000E+00 -4.93697196E-01  6.35293934E-01
  0.00000000E+00  0.00000000E+00  0.00000000E+00  1.73140398E-01  0.00000000E+00
  0.00000000E+00  0.00000000E+00  4.15554493E-01  0.00000000E+00  0.00000000E+00
  0.00000000E+00  6.52030035E-02  0.00000000E+00  0.00000000E+00  0.00000000E+00
  2.33839899E-01  0.00000000E+00  0.00000000E+00 -6.64970751E-01  6.88838741E-01
 -5.92924962E-01  0.00000000E+00  2.94757525E-01 -4.96576816E-01  6.64970751E-01
 -6.88838741E-01  5.92924962E-01  0.00000000E+00  2.94757525E-01  4.96576816E-01
 -2.93290639E-02 -5.22095055E-02  0.00000000E+00  0.00000000E+00 -1.68929732E-01
  2.18435996E-01  0.00000000E+00  0.00000000E+00 -2.21628241E-01 -2.98592096E-03
  0.00000000E+00  0.00000000E+00  1.70122205E-01 -8.21309181E-02  0.00000000E+00
  0.00000000E+00  2.66817386E-01  0.00000000E+00 -8.64540770E-01  1.04504349E+00
 -4.37893345E-01  0.00000000E+00  3.32810562E-01 -1.63231066E-01 -8.64540770E-01
  1.04504349E+00 -4.37893345E-01  0.00000000E+00 -3.32810562E-01 -1.63231066E-01
  5.44755551E-02  1.19395493E-01  0.00000000E+00  0.00000000E+00  2.77307326E-02
 -8.37178632E-01  0.00000000E+00  0.00000000E+00  6.36938854E-01 -1.82120431E+00
  0.00000000E+00  0.00000000E+00  7.80426170E-01  3.00632358E-02  0.00000000E+00
  0.00000000E+00 -2.28841804E-02  0.00000000E+00 -6.00733839E-01  2.03293346E+00
 -2.82083606E-01  0.00000000E+00 -8.73355274E-01  6.49542675E-01 -6.00733839E-01
  2.03293346E+00 -2.82083606E-01  0.00000000E+00  8.73355274E-01  6.49542675E-01
  0.00000000E+00  0.00000000E+00  0.00000000E+00 -2.48531198E-02  0.00000000E+00
  0.00000000E+00  0.00000000E+00 -8.36925705E-01  0.00000000E+00  0.00000000E+00
  0.00000000E+00 -6.77452080E-01  0.00000000E+00  0.00000000E+00  0.00000000E+00
  2.00979282E-01  0.00000000E+00  0.00000000E+00 -8.07308615E-01  2.08080277E+00
 -5.37394435E-01  0.00000000E+00 -8.63983557E-01  6.22367851E-01  8.07308615E-01
 -2.08080277E+00  5.37394435E-01  0.00000000E+00 -8.63983557E-01 -6.22367851E-01
  0.00000000E+00  0.00000000E+00 -1.57291051E-02  0.00000000E+00  0.00000000E+00
  0.00000000E+00  1.64153619E-02  0.00000000E+00  0.00000000E+00  0.00000000E+00
 -2.72791416E-01  0.00000000E+00  0.00000000E+00  0.00000000E+00  1.03244585E+00
  0.00000000E+00  0.00000000E+00  0.00000000E+00  0.00000000E+00  0.00000000E+00
  0.00000000E+00  3.61699898E-01  0.00000000E+00  0.00000000E+00  0.00000000E+00
  0.00000000E+00  0.00000000E+00  3.61699898E-01  0.00000000E+00  0.00000000E+00
  0.00000000E+00  0.00000000E+00  0.00000000E+00  0.00000000E+00  0.00000000E+00
  0.00000000E+00  0.00000000E+00  0.00000000E+00  0.00000000E+00  0.00000000E+00
  0.00000000E+00  0.00000000E+00  0.00000000E+00  0.00000000E+00  0.00000000E+00
  0.00000000E+00  0.00000000E+00  1.05074554E+00  0.00000000E+00  0.00000000E+00
  0.00000000E+00 -3.40751756E-01  0.00000000E+00  0.00000000E+00  0.00000000E+00
  0.00000000E+00  0.00000000E+00  3.40751756E-01  0.00000000E+00  0.00000000E+00
  1.02911902E-04  5.54657322E-04  0.00000000E+00  0.00000000E+00 -3.03727080E-02
 -6.30943663E-02  0.00000000E+00  0.00000000E+00 -1.54609482E-02  6.50399005E-01
  0.00000000E+00  0.00000000E+00 -5.87691980E-01  1.06381833E+00  0.00000000E+00
  0.00000000E+00  1.87580801E-01  0.00000000E+00 -2.86129711E-03 -4.51142976E-01
  3.21841900E-02  0.00000000E+00  3.64858096E-01  2.64052592E-01 -2.86129711E-03
 -4.51142976E-01  3.21841900E-02  0.00000000E+00 -3.64858096E-01  2.64052592E-01
 -2.17435405E-02 -4.04904253E-02  0.00000000E+00  0.00000000E+00 -3.28572401E-01
  9.76212492E-02  0.00000000E+00  0.00000000E+00 -8.01584315E-02  2.08150629E+00
  0.00000000E+00  0.00000000E+00 -1.00985355E+00  1.66415996E-01  0.00000000E+00
  0.00000000E+00 -1.10198179E+00  0.00000000E+00 -2.81137217E-01 -1.12555843E+00
 -4.41130108E-02  0.00000000E+00  5.86940344E-01 -4.67358642E-01 -2.81137217E-01
 -1.12555843E+00 -4.41130108E-02  0.00000000E+00 -5.86940344E-01 -4.67358642E-01
  0.00000000E+00  0.00000000E+00  0.00000000E+00 -4.65107752E-01  0.00000000E+00
  0.00000000E+00  0.00000000E+00  8.52842482E-02  0.00000000E+00  0.00000000E+00
  0.00000000E+00 -9.62564143E-01  0.00000000E+00  0.00000000E+00  0.00000000E+00
  1.14613494E+00  0.00000000E+00  0.00000000E+00  3.78285699E-01  5.22483454E-01
  2.39578602E-01  0.00000000E+00 -4.65823237E-01  3.61533495E-01 -3.78285699E-01
 -5.22483454E-01 -2.39578602E-01  0.00000000E+00 -4.65823237E-01 -3.61533495E-01
  0.00000000E+00  0.00000000E+00 -1.26193123E+00  0.00000000E+00  0.00000000E+00
  0.00000000E+00  1.39525775E+00  0.00000000E+00  0.00000000E+00  0.00000000E+00
 -5.00540242E-01  0.00000000E+00  0.00000000E+00  0.00000000E+00 -2.50871640E-02
  0.00000000E+00  0.00000000E+00  0.00000000E+00  0.00000000E+00  0.00000000E+00
  0.00000000E+00 -5.80211105E-02  0.00000000E+00  0.00000000E+00  0.00000000E+00
  0.00000000E+00  0.00000000E+00 -5.80211105E-02  0.00000000E+00  0.00000000E+00
  2.38253096E-02  4.28559582E-02  0.00000000E+00  0.00000000E+00 -1.24616828E+00
 -2.23107422E-01  0.00000000E+00  0.00000000E+00  1.74060905E+00 -1.07206334E+00
  0.00000000E+00  0.00000000E+00 -7.71338026E-02 -1.05431855E-01  0.00000000E+00
  0.00000000E+00  3.78019878E-01  0.00000000E+00  2.81086278E-01  5.29327184E-01
  1.33417462E-02  0.00000000E+00 -4.89455814E-01  2.89554397E-01  2.81086278E-01
  5.29327184E-01  1.33417462E-02  0.00000000E+00  4.89455814E-01  2.89554397E-01
  0.00000000E+00  0.00000000E+00  0.00000000E+00 -1.23783575E+00  0.00000000E+00
  0.00000000E+00  0.00000000E+00  2.01169810E+00  0.00000000E+00  0.00000000E+00
  0.00000000E+00 -1.46033039E-01  0.00000000E+00  0.00000000E+00  0.00000000E+00
 -6.66274291E-01  0.00000000E+00  0.00000000E+00 -3.40278643E-01 -5.11249984E-01
  1.51066976E-01  0.00000000E+00  5.35616252E-01 -4.78090179E-01  3.40278643E-01
  5.11249984E-01 -1.51066976E-01  0.00000000E+00  5.35616252E-01  4.78090179E-01
 -2.24654151E+00  2.33674238E+00  0.00000000E+00  0.00000000E+00 -1.79492564E-02
 -2.69194418E-01  0.00000000E+00  0.00000000E+00  6.98408810E-02  7.86706694E-02
  0.00000000E+00  0.00000000E+00  8.74288546E-03 -3.50595432E-03  0.00000000E+00
  0.00000000E+00  2.42777120E-02  0.00000000E+00  4.41224146E-03  6.49360380E-02
 -3.12267919E-02  0.00000000E+00 -5.77421373E-02  4.45250875E-02  4.41224146E-03
  6.49360380E-02 -3.12267919E-02  0.00000000E+00  5.77421373E-02  4.45250875E-02
Orthonormal basis                          R   N=         900
  5.44211007E-02  5.72877740E-02  0.00000000E+00  0.00000000E+00 -3.47659141E-02
  1.47225962E-01  0.00000000E+00  0.00000000E+00 -7.54727618E-02  1.89699594E-01
  0.00000000E+00  0.00000000E+00 -9.65506288E-02  6.27164728E-03  0.00000000E+00
  0.00000000E+00 -1.72810108E-02  0.00000000E+00  1.02073085E-01  1.63825058E-01
  1.66779444E-01  0.00000000E+00 -7.01391127E-02  2.08323364E-02  1.02073085E-01
  1.63825058E-01  1.66779444E-01  0.00000000E+00  7.01391127E-02  2.08323364E-02
  2.42294582E-01  2.47794233E-01  0.00000000E+00  0.00000000E+00  1.85574709E-01
  2.06019729E-01  0.00000000E+00  0.00000000E+00  2.80943679E-01  1.33813336E-01
  0.00000000E+00  0.00000000E+00  2.77670759E-01 -5.40686405E-02  0.00000000E+00
  0.00000000E+00 -1.53811275E-02  0.00000000E+00 -7.42906621E-02 -4.32766214E-02
  8.26474082E-03  0.00000000E+00  5.45609344E-02  1.36403936E-01 -7.42906621E-02
 -4.32766214E-02  8.26474082E-03  0.00000000E+00 -5.45609344E-02  1.36403936E-01
 -2.89343574E-01 -2.91856490E-01  0.00000000E+00  0.00000000E+00  2.22027956E-01
 -1.05508190E-01  0.00000000E+00  0.00000000E+00  2.61195126E-01  8.59385573E-02
  0.00000000E+00  0.00000000E+00  1.12511970E-01 -5.83496911E-02  0.00000000E+00
  0.00000000E+00 -3.06592549E-02  0.00000000E+00  6.41465156E-02  9.70365280E-02
  1.68758667E-01  0.00000000E+00  2.17622620E-01 -1.97756040E-02  6.41465156E-02
  9.70365280E-02  1.68758667E-01  0.00000000E+00 -2.17622620E-01 -1.97756040E-02
 -2.34965160E-01 -2.27513580E-01  0.00000000E+00  0.00000000E+00 -2.20380659E-01
  1.24119019E-01  0.00000000E+00  0.00000000E+00 -1.45732342E-01  9.49430715E-02
  0.00000000E+00  0.00000000E+00  1.35656169E-01 -2.65192925E-01  0.00000000E+00
  0.00000000E+00 -2.72870649E-01  0.00000000E+00 -9.65212548E-04 -4.83530561E-02
 -8.44898167E-02  0.00000000E+00 -6.50993627E-02  3.84298879E-01 -9.65212548E-04
 -4.83530561E-02 -8.44898167E-02  0.00000000E+00  6.50993627E-02  3.84298879E-01
  2.56741605E-01  2.44044292E-01  0.00000000E+00  0.00000000E+00 -9.67553772E-02
 -2.06397515E-01  0.00000000E+00  0.00000000E+00 -1.08780327E-01 -1.90003930E-01
  0.00000000E+00  0.00000000E+00 -1.78641565E-01 -3.68663267E-01  0.00000000E+00
  0.00000000E+00 -2.39275822E-01  0.00000000E+00  1.62685204E-01  6.87735250E-02
 -4.16353300E-03  0.00000000E+00  3.45055446E-01  4.51380461E-02  1.62685204E-01
  6.87735250E-02 -4.16353300E-03  0.00000000E+00 -3.45055446E-01  4.51380461E-02
 -2.33975472E-02 -2.07387572E-02  0.00000000E+00  0.00000000E+00 -2.26560060E-01
  2.49317692E-02  0.00000000E+00  0.00000000E+00 -9.38244152E-02  7.27289144E-02
  0.00000000E+00  0.00000000E+00  2.46727208E-02 -4.91866429E-01  0.00000000E+00
  0.00000000E+00  7.12941533E-01  0.00000000E+00 -1.90599686E-01 -7.18085649E-03
  1.19561904E-01  0.00000000E+00  7.94290101E-02  8.35124657E-03 -1.90599686E-01
 -7.18085649E-03  1.19561904E-01  0.00000000E+00 -7.94290101E-02  8.35124657E-03
 -5.79675881E-02 -4.85344115E-02  0.00000000E+00  0.00000000E+00  6.99881946E-01