 Default is to use a total of   4 processors:
                                4 via shared-memory
                                1 via Linda
 Entering Link 1 = d:\study\G09W\l1.exe PID=      3772.
  
 Copyright (c) 1988,1990,1992,1993,1995,1998,2003,2009,2013,
            Gaussian, Inc.  All Rights Reserved.
  
 This is part of the Gaussian(R) 09 program.  It is based on
 the Gaussian(R) 03 system (copyright 2003, Gaussian, Inc.),
 the Gaussian(R) 98 system (copyright 1998, Gaussian, Inc.),
 the Gaussian(R) 94 system (copyright 1995, Gaussian, Inc.),
 the Gaussian 92(TM) system (copyright 1992, Gaussian, Inc.),
 the Gaussian 90(TM) system (copyright 1990, Gaussian, Inc.),
 the Gaussian 88(TM) system (copyright 1988, Gaussian, Inc.),
 the Gaussian 86(TM) system (copyright 1986, Carnegie Mellon
 University), and the Gaussian 82(TM) system (copyright 1983,
 Carnegie Mellon University). Gaussian is a federally registered
 trademark of Gaussian, Inc.
  
 This software contains proprietary and confidential information,
 including trade secrets, belonging to Gaussian, Inc.
  
 This software is provided under written license and may be
 used, copied, transmitted, or stored only in accord with that
 written license.
  
 The following legend is applicable only to US Government
 contracts under FAR:
  
                    RESTRICTED RIGHTS LEGEND
  
 Use, reproduction and disclosure by the US Government is
 subject to restrictions as set forth in subparagraphs (a)
 and (c) of the Commercial Computer Software - Restricted
 Rights clause in FAR 52.227-19.
  
 Gaussian, Inc.
 340 Quinnipiac St., Bldg. 40, Wallingford CT 06492
  
  
 ---------------------------------------------------------------
 Warning -- This program may not be used in any manner that
 competes with the business of Gaussian, Inc. or will provide
 assistance to any competitor of Gaussian, Inc.  The licensee
 of this program is prohibited from giving any competitor of
 Gaussian, Inc. access to this program.  By using this program,
 the user acknowledges that Gaussian, Inc. is engaged in the
 business of creating and licensing software in the field of
 computational chemistry and represents and warrants to the
 licensee that it is not a competitor of Gaussian, Inc. and that
 it will not use this program in any manner prohibited above.
 ---------------------------------------------------------------
  

 Cite this work as:
 Gaussian 09, Revision D.01,
 M. J. Frisch, G. W. Trucks, H. B. Schlegel, G. E. Scuseria, 
 M. A. Robb, J. R. Cheeseman, G. Scalmani, V. Barone, B. Mennucci, 
 G. A. Petersson, H. Nakatsuji, M. Caricato, X. Li, H. P. Hratchian, 
 A. F. Izmaylov, J. Bloino, G. Zheng, J. L. Sonnenberg, M. Hada, 
 M. Ehara, K. Toyota, R. Fukuda, J. Hasegawa, M. Ishida, T. Nakajima, 
 Y. Honda, O. Kitao, H. Nakai, T. Vreven, J. A. Montgomery, Jr., 
 J. E. Peralta, F. Ogliaro, M. Bearpark, J. J. Heyd, E. Brothers, 
 K. N. Kudin, V. N. Staroverov, T. Keith, R. Kobayashi, J. Normand, 
 K. Raghavachari, A. Rendell, J. C. Burant, S. S. Iyengar, J. Tomasi, 
 M. Cossi, N. Rega, J. M. Millam, M. Klene, J. E. Knox, J. B. Cross, 
 V. Bakken, C. Adamo, J. Jaramillo, R. Gomperts, R. E. Stratmann, 
 O. Yazyev, A. J. Austin, R. Cammi, C. Pomelli, J. W. Ochterski, 
 R. L. Martin, K. Morokuma, V. G. Zakrzewski, G. A. Voth, 
 P. Salvador, J. J. Dannenberg, S. Dapprich, A. D. Daniels, 
 O. Farkas, J. B. Foresman, J. V. Ortiz, J. Cioslowski, 
 and D. J. Fox, Gaussian, Inc., Wallingford CT, 2013.
 
 ******************************************
 Gaussian 09:  IA32W-G09RevD.01 24-Apr-2013
                22-Mar-2017 
 ******************************************
 ---------------------------
 # hf/6-31G* pop=full nosymm
 ---------------------------
 1/38=1/1;
 2/12=2,15=1,17=6,18=5,40=1/2;
 3/5=1,6=6,7=1,11=9,16=1,25=1,30=1/1,2,3;
 4//1;
 5/5=2,38=5/2;
 6/7=3,28=1/1;
 99/5=1,9=1/99;
 ---------------
 hf/6-31G* opted
 ---------------
 Symbolic Z-matrix:
 Charge =  0 Multiplicity = 1
 B                     0.        0.       -0.94711 
 H                     1.17083   0.       -1.24677 
 H                    -0.58542   1.01397  -1.24677 
 H                    -0.58542  -1.01397  -1.24677 
 
                          Input orientation:                          
 ---------------------------------------------------------------------
 Center     Atomic      Atomic             Coordinates (Angstroms)
 Number     Number       Type             X           Y           Z
 ---------------------------------------------------------------------
      1          5           0        0.000000    0.000000   -0.947107
      2          1           0        1.170832    0.000000   -1.246766
      3          1           0       -0.585416    1.013970   -1.246766
      4          1           0       -0.585416   -1.013970   -1.246766
 ---------------------------------------------------------------------
                    Distance matrix (angstroms):
                    1          2          3          4
     1  B    0.000000
     2  H    1.208571   0.000000
     3  H    1.208570   2.027940   0.000000
     4  H    1.208570   2.027940   2.027940   0.000000
 Symmetry turned off by external request.
 Stoichiometry    BH3
 Framework group  C3V[C3(B),3SGV(H)]
 Deg. of freedom     2
 Full point group                 C3V     NOp   6
 Rotational constants (GHZ):    221.1376344    221.1375333    121.9331351
 Standard basis: 6-31G(d) (6D, 7F)
    21 basis functions,    40 primitive gaussians,    21 cartesian basis functions
     4 alpha electrons        4 beta electrons
       nuclear repulsion energy         7.3506366628 Hartrees.
 NAtoms=    4 NActive=    4 NUniq=    4 SFac= 1.00D+00 NAtFMM=   60 NAOKFM=F Big=F
 Integral buffers will be    262144 words long.
 Raffenetti 1 integral format.
 Two-electron integral symmetry is turned off.
 One-electron integrals computed using PRISM.
 NBasis=    21 RedAO= T EigKep=  2.23D-02  NBF=    21
 NBsUse=    21 1.00D-06 EigRej= -1.00D+00 NBFU=    21
 ExpMin= 1.27D-01 ExpMax= 2.07D+03 ExpMxC= 3.11D+02 IAcc=1 IRadAn=         1 AccDes= 0.00D+00
 Harris functional with IExCor=  205 and IRadAn=       1 diagonalized for initial guess.
 HarFok:  IExCor=  205 AccDes= 0.00D+00 IRadAn=         1 IDoV= 1 UseB2=F ITyADJ=14
 ICtDFT=  3500011 ScaDFX=  1.000000  1.000000  1.000000  1.000000
 FoFCou: FMM=F IPFlag=           0 FMFlag=      100000 FMFlg1=           0
         NFxFlg=           0 DoJE=T BraDBF=F KetDBF=T FulRan=T
         wScrn=  0.000000 ICntrl=     500 IOpCl=  0 I1Cent=   200000004 NGrid=           0
         NMat0=    1 NMatS0=      1 NMatT0=    0 NMatD0=    1 NMtDS0=    0 NMtDT0=    0
 Symmetry not used in FoFCou.
 Keep R1 ints in memory in canonical form, NReq=872927.
 Requested convergence on RMS density matrix=1.00D-08 within 128 cycles.
 Requested convergence on MAX density matrix=1.00D-06.
 Requested convergence on             energy=1.00D-06.
 No special actions if energy rises.
 SCF Done:  E(RHF) =  -26.3681997548     A.U. after    9 cycles
            NFock=  9  Conv=0.88D-09     -V/T= 2.0010

 **********************************************************************

            Population analysis using the SCF density.

 **********************************************************************

 Alpha  occ. eigenvalues --   -7.61873  -0.70095  -0.48350  -0.48350
 Alpha virt. eigenvalues --    0.06818   0.30684   0.30684   0.32829   0.57105
 Alpha virt. eigenvalues --    0.57105   0.64679   0.67462   1.14508   1.14508
 Alpha virt. eigenvalues --    1.19415   1.49143   1.49143   1.75406   2.07924
 Alpha virt. eigenvalues --    2.07924   3.75770
     Molecular Orbital Coefficients:
                           1         2         3         4         5
                           O         O         O         O         V
     Eigenvalues --    -7.61873  -0.70095  -0.48350  -0.48350   0.06818
   1 1   B  1S          0.99626  -0.18789   0.00000   0.00000  -0.05267
   2        2S          0.02356   0.30442   0.00000   0.00000   0.02692
   3        2PX         0.00000   0.00000   0.40248   0.00000   0.00000
   4        2PY         0.00000   0.00000   0.00000   0.40248   0.00000
   5        2PZ         0.00112  -0.05437   0.00000   0.00000   0.33648
   6        3S         -0.01160   0.24544   0.00000   0.00000   0.37273
   7        3PX         0.00000   0.00000   0.14754   0.00000   0.00000
   8        3PY         0.00000   0.00000   0.00000   0.14754   0.00000
   9        3PZ         0.00022   0.00594   0.00000   0.00000   0.67898
  10        4XX         0.00006   0.03246   0.03391   0.00000  -0.00183
  11        4YY         0.00006   0.03246  -0.03391   0.00000  -0.00183
  12        4ZZ        -0.00090  -0.00669   0.00000   0.00000   0.00877
  13        4XY         0.00000   0.00000   0.00000  -0.03916   0.00000
  14        4XZ         0.00000   0.00000  -0.01407   0.00000   0.00000
  15        4YZ         0.00000   0.00000   0.00000  -0.01407   0.00000
  16 2   H  1S         -0.00011   0.16044   0.27022   0.00000  -0.04145
  17        2S          0.00233   0.12553   0.30060   0.00000  -0.08583
  18 3   H  1S         -0.00011   0.16044  -0.13511   0.23402  -0.04145
  19        2S          0.00233   0.12553  -0.15030   0.26033  -0.08583
  20 4   H  1S         -0.00011   0.16044  -0.13511  -0.23402  -0.04145
  21        2S          0.00233   0.12553  -0.15030  -0.26033  -0.08583
                           6         7         8         9        10
                           V         V         V         V         V
     Eigenvalues --     0.30684   0.30684   0.32829   0.57105   0.57105
   1 1   B  1S          0.00000   0.00000  -0.15893   0.00000   0.00000
   2        2S          0.00000   0.00000   0.17201   0.00000   0.00000
   3        2PX         0.00000   0.20109   0.00000   0.00000  -1.02390
   4        2PY         0.20109   0.00000   0.00000  -1.02390   0.00000
   5        2PZ         0.00000   0.00000  -0.06637   0.00000   0.00000
   6        3S          0.00000   0.00000   2.80276   0.00000   0.00000
   7        3PX         0.00000   1.87783   0.00000   0.00000   1.08180
   8        3PY         1.87783   0.00000   0.00000   1.08180   0.00000
   9        3PZ         0.00000   0.00000  -0.69801   0.00000   0.00000
  10        4XX         0.00000  -0.02055   0.02491   0.00000  -0.04872
  11        4YY         0.00000   0.02055   0.02491   0.00000   0.04872
  12        4ZZ         0.00000   0.00000   0.03419   0.00000   0.00000
  13        4XY         0.02373   0.00000   0.00000   0.05626   0.00000
  14        4XZ         0.00000   0.00776   0.00000   0.00000   0.01995
  15        4YZ         0.00776   0.00000   0.00000   0.01995   0.00000
  16 2   H  1S          0.00000  -0.09173  -0.01675   0.00000  -0.24750
  17        2S          0.00000  -1.86124  -1.42042   0.00000   0.18894
  18 3   H  1S         -0.07944   0.04586  -0.01675  -0.21434   0.12375
  19        2S         -1.61188   0.93062  -1.42043   0.16363  -0.09447
  20 4   H  1S          0.07944   0.04586  -0.01675   0.21434   0.12375
  21        2S          1.61188   0.93062  -1.42043  -0.16363  -0.09447
                          11        12        13        14        15
                           V         V         V         V         V
     Eigenvalues --     0.64679   0.67462   1.14508   1.14508   1.19415
   1 1   B  1S         -0.03241  -0.05110   0.00000   0.00000   0.04615
   2        2S         -0.28238  -1.59909   0.00000   0.00000  -1.28688
   3        2PX         0.00000   0.00000   0.68091   0.00000   0.00000
   4        2PY         0.00000   0.00000   0.00000   0.68091   0.00000
   5        2PZ         1.15650  -0.34670   0.00000   0.00000   0.27380
   6        3S          0.74499   3.32999  -0.00001   0.00000   3.11087
   7        3PX         0.00000   0.00000  -1.27468   0.00000   0.00000
   8        3PY         0.00000   0.00000   0.00000  -1.27468   0.00000
   9        3PZ        -1.11137  -0.14887   0.00000   0.00000  -0.53436
  10        4XX        -0.04254  -0.14329  -0.32056   0.00000   0.11799
  11        4YY        -0.04254  -0.14329   0.32056   0.00000   0.11800
  12        4ZZ         0.03420  -0.00088   0.00000   0.00000  -0.31692
  13        4XY         0.00000   0.00000   0.00000   0.37015   0.00000
  14        4XZ         0.00000   0.00000   0.19062   0.00000   0.00000
  15        4YZ         0.00000   0.00000   0.00000   0.19062   0.00000
  16 2   H  1S         -0.12875  -0.21909  -0.83649   0.00000   0.64155
  17        2S         -0.11986  -0.64511   1.64867   0.00000  -1.32485
  18 3   H  1S         -0.12875  -0.21909   0.41824  -0.72442   0.64156
  19        2S         -0.11986  -0.64511  -0.82433   1.42779  -1.32486
  20 4   H  1S         -0.12875  -0.21909   0.41824   0.72442   0.64156
  21        2S         -0.11986  -0.64511  -0.82433  -1.42779  -1.32486
                          16        17        18        19        20
                           V         V         V         V         V
     Eigenvalues --     1.49143   1.49143   1.75406   2.07924   2.07924
   1 1   B  1S          0.00000   0.00000   0.06697   0.00000   0.00000
   2        2S          0.00000   0.00000  -0.00841   0.00000   0.00000
   3        2PX        -0.00660   0.00000   0.00000  -0.31314   0.00000
   4        2PY         0.00000  -0.00660   0.00000   0.00000  -0.31314
   5        2PZ         0.00000   0.00000   0.06448   0.00000   0.00000
   6        3S          0.00000   0.00000  -0.61665   0.00000   0.00000
   7        3PX         0.01867   0.00000   0.00000  -0.20558   0.00000
   8        3PY         0.00000   0.01867   0.00000   0.00000  -0.20558
   9        3PZ         0.00000   0.00000   0.13995   0.00000   0.00000
  10        4XX         0.40371   0.00000  -0.48562  -0.83587   0.00000
  11        4YY        -0.40371   0.00000  -0.48562   0.83587   0.00000
  12        4ZZ         0.00000   0.00000   1.05493   0.00000   0.00000
  13        4XY         0.00000  -0.46617   0.00000   0.00000   0.96518
  14        4XZ         0.88465   0.00000   0.00000   0.50665   0.00000
  15        4YZ         0.00000   0.88465   0.00000   0.00000   0.50665
  16 2   H  1S         -0.01294   0.00000   0.42123   0.89606   0.00000
  17        2S         -0.00626   0.00000   0.05107  -0.25055   0.00000
  18 3   H  1S          0.00647  -0.01120   0.42123  -0.44803   0.77601
  19        2S          0.00313  -0.00542   0.05107   0.12528  -0.21699
  20 4   H  1S          0.00647   0.01120   0.42123  -0.44803  -0.77601
  21        2S          0.00313   0.00542   0.05107   0.12528   0.21699
                          21
                           V
     Eigenvalues --     3.75770
   1 1   B  1S         -0.47251
   2        2S          4.19153
   3        2PX         0.00000
   4        2PY         0.00000
   5        2PZ         0.03809
   6        3S          1.04507
   7        3PX         0.00000
   8        3PY         0.00000
   9        3PZ        -0.12311
  10        4XX        -2.11699
  11        4YY        -2.11700
  12        4ZZ        -2.06431
  13        4XY         0.00000
  14        4XZ         0.00000
  15        4YZ         0.00000
  16 2   H  1S          0.18695
  17        2S         -0.35317
  18 3   H  1S          0.18695
  19        2S         -0.35317
  20 4   H  1S          0.18695
  21        2S         -0.35317
     Density Matrix:
                           1         2         3         4         5
   1 1   B  1S          2.05568
   2        2S         -0.06746   0.18645
   3        2PX         0.00000   0.00000   0.32399
   4        2PY         0.00000   0.00000   0.00000   0.32399
   5        2PZ         0.02267  -0.03305   0.00000   0.00000   0.00591
   6        3S         -0.11534   0.14888   0.00000   0.00000  -0.02671
   7        3PX         0.00000   0.00000   0.11877   0.00000   0.00000
   8        3PY         0.00000   0.00000   0.00000   0.11877   0.00000
   9        3PZ        -0.00178   0.00363   0.00000   0.00000  -0.00065
  10        4XX        -0.01209   0.01977   0.02730   0.00000  -0.00353
  11        4YY        -0.01209   0.01977  -0.02730   0.00000  -0.00353
  12        4ZZ         0.00071  -0.00412   0.00000   0.00000   0.00073
  13        4XY         0.00000   0.00000   0.00000  -0.03152   0.00000
  14        4XZ         0.00000   0.00000  -0.01132   0.00000   0.00000
  15        4YZ         0.00000   0.00000   0.00000  -0.01132   0.00000
  16 2   H  1S         -0.06051   0.09768   0.21752   0.00000  -0.01745
  17        2S         -0.04253   0.07654   0.24198   0.00000  -0.01364
  18 3   H  1S         -0.06051   0.09768  -0.10876   0.18838  -0.01745
  19        2S         -0.04253   0.07654  -0.12099   0.20956  -0.01364
  20 4   H  1S         -0.06051   0.09768  -0.10876  -0.18838  -0.01745
  21        2S         -0.04253   0.07654  -0.12099  -0.20956  -0.01364
                           6         7         8         9        10
   6        3S          0.12075
   7        3PX         0.00000   0.04354
   8        3PY         0.00000   0.00000   0.04354
   9        3PZ         0.00291   0.00000   0.00000   0.00007
  10        4XX         0.01593   0.01001   0.00000   0.00039   0.00441
  11        4YY         0.01593  -0.01001   0.00000   0.00039  -0.00019
  12        4ZZ        -0.00326   0.00000   0.00000  -0.00008  -0.00043
  13        4XY         0.00000   0.00000  -0.01155   0.00000   0.00000
  14        4XZ         0.00000  -0.00415   0.00000   0.00000  -0.00095
  15        4YZ         0.00000   0.00000  -0.00415   0.00000   0.00000
  16 2   H  1S          0.07876   0.07974   0.00000   0.00191   0.02874
  17        2S          0.06156   0.08870   0.00000   0.00149   0.02854
  18 3   H  1S          0.07876  -0.03987   0.06906   0.00191   0.00125
  19        2S          0.06156  -0.04435   0.07682   0.00149  -0.00204
  20 4   H  1S          0.07876  -0.03987  -0.06906   0.00191   0.00125
  21        2S          0.06156  -0.04435  -0.07682   0.00149  -0.00204
                          11        12        13        14        15
  11        4YY         0.00441
  12        4ZZ        -0.00043   0.00009
  13        4XY         0.00000   0.00000   0.00307
  14        4XZ         0.00095   0.00000   0.00000   0.00040
  15        4YZ         0.00000   0.00000   0.00110   0.00000   0.00040
  16 2   H  1S         -0.00791  -0.00215   0.00000  -0.00760   0.00000
  17        2S         -0.01224  -0.00168   0.00000  -0.00846   0.00000
  18 3   H  1S          0.01958  -0.00215  -0.01833   0.00380  -0.00658
  19        2S          0.01834  -0.00168  -0.02039   0.00423  -0.00732
  20 4   H  1S          0.01958  -0.00215   0.01833   0.00380   0.00658
  21        2S          0.01834  -0.00168   0.02039   0.00423   0.00732
                          16        17        18        19        20
  16 2   H  1S          0.19753
  17        2S          0.20274   0.21225
  18 3   H  1S         -0.02154  -0.04095   0.19753
  19        2S         -0.04095  -0.05884   0.20274   0.21225
  20 4   H  1S         -0.02154  -0.04095  -0.02154  -0.04095   0.19753
  21        2S         -0.04095  -0.05884  -0.04095  -0.05884   0.20274
                          21
  21        2S          0.21225
    Full Mulliken population analysis:
                           1         2         3         4         5
   1 1   B  1S          2.05568
   2        2S         -0.01503   0.18645
   3        2PX         0.00000   0.00000   0.32399
   4        2PY         0.00000   0.00000   0.00000   0.32399
   5        2PZ         0.00000   0.00000   0.00000   0.00000   0.00591
   6        3S         -0.02292   0.12622   0.00000   0.00000   0.00000
   7        3PX         0.00000   0.00000   0.07407   0.00000   0.00000
   8        3PY         0.00000   0.00000   0.00000   0.07407   0.00000
   9        3PZ         0.00000   0.00000   0.00000   0.00000  -0.00040
  10        4XX        -0.00110   0.01429   0.00000   0.00000   0.00000
  11        4YY        -0.00110   0.01429   0.00000   0.00000   0.00000
  12        4ZZ         0.00006  -0.00298   0.00000   0.00000   0.00000
  13        4XY         0.00000   0.00000   0.00000   0.00000   0.00000
  14        4XZ         0.00000   0.00000   0.00000   0.00000   0.00000
  15        4YZ         0.00000   0.00000   0.00000   0.00000   0.00000
  16 2   H  1S         -0.00167   0.02658   0.08291   0.00000   0.00170
  17        2S         -0.00448   0.03963   0.08478   0.00000   0.00122
  18 3   H  1S         -0.00167   0.02658   0.02073   0.06218   0.00170
  19        2S         -0.00448   0.03963   0.02119   0.06358   0.00122
  20 4   H  1S         -0.00167   0.02658   0.02073   0.06218   0.00170
  21        2S         -0.00448   0.03963   0.02119   0.06358   0.00122
                           6         7         8         9        10
   6        3S          0.12075
   7        3PX         0.00000   0.04354
   8        3PY         0.00000   0.00000   0.04354
   9        3PZ         0.00000   0.00000   0.00000   0.00007
  10        4XX         0.01004   0.00000   0.00000   0.00000   0.00441
  11        4YY         0.01004   0.00000   0.00000   0.00000  -0.00006
  12        4ZZ        -0.00206   0.00000   0.00000   0.00000  -0.00014
  13        4XY         0.00000   0.00000   0.00000   0.00000   0.00000
  14        4XZ         0.00000   0.00000   0.00000   0.00000   0.00000
  15        4YZ         0.00000   0.00000   0.00000   0.00000   0.00000
  16 2   H  1S          0.02626   0.03548   0.00000  -0.00022   0.01268
  17        2S          0.04206   0.05346   0.00000  -0.00023   0.01319
  18 3   H  1S          0.02626   0.00887   0.02661  -0.00022   0.00023
  19        2S          0.04206   0.01336   0.04009  -0.00023  -0.00077
  20 4   H  1S          0.02626   0.00887   0.02661  -0.00022   0.00023
  21        2S          0.04206   0.01336   0.04009  -0.00023  -0.00077
                          11        12        13        14        15
  11        4YY         0.00441
  12        4ZZ        -0.00014   0.00009
  13        4XY         0.00000   0.00000   0.00307
  14        4XZ         0.00000   0.00000   0.00000   0.00040
  15        4YZ         0.00000   0.00000   0.00000   0.00000   0.00040
  16 2   H  1S         -0.00073  -0.00025   0.00000   0.00117   0.00000
  17        2S         -0.00424  -0.00060   0.00000   0.00043   0.00000
  18 3   H  1S          0.00693  -0.00025   0.00479   0.00029   0.00088
  19        2S          0.00795  -0.00060   0.00177   0.00011   0.00033
  20 4   H  1S          0.00693  -0.00025   0.00479   0.00029   0.00088
  21        2S          0.00795  -0.00060   0.00177   0.00011   0.00033
                          16        17        18        19        20
  16 2   H  1S          0.19753
  17        2S          0.13346   0.21225
  18 3   H  1S         -0.00013  -0.00393   0.19753
  19        2S         -0.00393  -0.01800   0.13346   0.21225
  20 4   H  1S         -0.00013  -0.00393  -0.00013  -0.00393   0.19753
  21        2S         -0.00393  -0.01800  -0.00393  -0.01800   0.13346
                          21
  21        2S          0.21225
     Gross orbital populations:
                           1
   1 1   B  1S          1.99716
   2        2S          0.52188
   3        2PX         0.64959
   4        2PY         0.64959
   5        2PZ         0.01429
   6        3S          0.44702
   7        3PX         0.25100
   8        3PY         0.25100
   9        3PZ        -0.00167
  10        4XX         0.05223
  11        4YY         0.05223
  12        4ZZ        -0.00770
  13        4XY         0.01619
  14        4XZ         0.00281
  15        4YZ         0.00281
  16 2   H  1S          0.50678
  17        2S          0.52708
  18 3   H  1S          0.50678
  19        2S          0.52708
  20 4   H  1S          0.50678
  21        2S          0.52708
          Condensed to atoms (all electrons):
               1          2          3          4
     1  B    3.670968   0.409148   0.409148   0.409148
     2  H    0.409148   0.676700  -0.025993  -0.025993
     3  H    0.409148  -0.025993   0.676700  -0.025993
     4  H    0.409148  -0.025993  -0.025993   0.676700
 Mulliken charges:
               1
     1  B    0.101588
     2  H   -0.033863
     3  H   -0.033863
     4  H   -0.033863
 Sum of Mulliken charges =   0.00000
 Mulliken charges with hydrogens summed into heavy atoms:
               1
     1  B    0.000000
 Electronic spatial extent (au):  <R**2>=             67.8389
 Charge=              0.0000 electrons
 Dipole moment (field-independent basis, Debye):
    X=              0.0000    Y=              0.0000    Z=              0.7942  Tot=              0.7942
 Quadrupole moment (field-independent basis, Debye-Ang):
   XX=             -9.5317   YY=             -9.5317   ZZ=             -8.4876
   XY=              0.0000   XZ=              0.0000   YZ=              0.0000
 Traceless Quadrupole moment (field-independent basis, Debye-Ang):
   XX=             -0.3480   YY=             -0.3480   ZZ=              0.6961
   XY=              0.0000   XZ=              0.0000   YZ=              0.0000
 Octapole moment (field-independent basis, Debye-Ang**2):
  XXX=             -0.1508  YYY=              0.0000  ZZZ=             25.2948  XYY=              0.1508
  XXY=              0.0000  XXZ=             10.0290  XZZ=              0.0000  YZZ=              0.0000
  YYZ=             10.0290  XYZ=              0.0000
 Hexadecapole moment (field-independent basis, Debye-Ang**3):
 XXXX=            -23.8633 YYYY=            -23.8633 ZZZZ=            -61.1337 XXXY=              0.0000
 XXXZ=             -0.0326 YYYX=              0.0000 YYYZ=              0.0000 ZZZX=              0.0000
 ZZZY=              0.0000 XXYY=             -7.9544 XXZZ=            -15.8208 YYZZ=            -15.8208
 XXYZ=              0.0000 YYXZ=              0.0326 ZZXY=              0.0000
 N-N= 7.350636662761D+00 E-N=-7.520509948347D+01  KE= 2.634079955438D+01
 Orbital energies and kinetic energies (alpha):
                                 1                 2
   1         O                -7.618728         10.902249
   2         O                -0.700950          0.849382
   3         O                -0.483504          0.709384
   4         O                -0.483504          0.709385
   5         V                 0.068184          0.531714
   6         V                 0.306839          0.560882
   7         V                 0.306839          0.560882
   8         V                 0.328294          0.853377
   9         V                 0.571046          1.339794
  10         V                 0.571046          1.339794
  11         V                 0.646793          1.616340
  12         V                 0.674617          1.172688
  13         V                 1.145081          2.148746
  14         V                 1.145081          2.148746
  15         V                 1.194154          2.332045
  16         V                 1.491430          2.100017
  17         V                 1.491430          2.100017
  18         V                 1.754061          2.494444
  19         V                 2.079243          2.968005
  20         V                 2.079244          2.968005
  21         V                 3.757702          7.767409
 Total kinetic energy from orbitals= 2.634079955438D+01
 1|1|UNPC-X500|SP|RHF|6-31G(d)|B1H3|SOBEREVA|22-Mar-2017|0||# hf/6-31G*
  pop=full nosymm||hf/6-31G* opted||0,1|B,0,0.,0.,-0.947107|H,0,1.17083
 2,0.,-1.246766|H,0,-0.585416,1.01397,-1.246766|H,0,-0.585416,-1.01397,
 -1.246766||Version=IA32W-G09RevD.01|HF=-26.3681998|RMSD=8.804e-010|Dip
 ole=0.,0.,0.3124462|Quadrupole=-0.2587574,-0.2587575,0.517515,0.,0.,0.
 |PG=C03V [C3(B1),3SGV(H1)]||@


 TERENCE, THIS IS STUPID STUFF:
 YOU EAT YOUR VICTUALS FAST ENOUGH;
 THERE CAN'T BE MUCH AMISS, 'TIS CLEAR
 TO SEE THE RATE YOU DRINK YOUR BEER.
 BUT OH, GOOD LORD, THE VERSE YOU MAKE,
 IT GIVES A CHAP THE BELLY-ACHE.
 THE COW, THE OLD COW, SHE IS DEAD;
 IT SLEEPS WELL, THE HORNED HEAD:
 WE POOR LADS, 'TIS OUR TURN NOW
 TO HEAR SUCH TUNES AS KILLED THE COW.
 PRETTY FRIENDSHIP 'TIS TO RHYME
 YOUR FRIENDS TO DEATH BEFORE THEIR TIME.
 MOPING, MELANCHOLY MAD:
 COME PIPE A TUNE TO DANCE TO, LAD.

     -- A. E. HOUSMAN
 Job cpu time:       0 days  0 hours  0 minutes  1.0 seconds.
 File lengths (MBytes):  RWF=      5 Int=      0 D2E=      0 Chk=      1 Scr=      1
 Normal termination of Gaussian 09 at Wed Mar 22 14:37:45 2017.
