 Default is to use a total of   4 processors:
                                4 via shared-memory
                                1 via Linda
 Entering Link 1 = d:\study\G09W\l1.exe PID=      3920.
  
 Copyright (c) 1988,1990,1992,1993,1995,1998,2003,2009,2013,
            Gaussian, Inc.  All Rights Reserved.
  
 This is part of the Gaussian(R) 09 program.  It is based on
 the Gaussian(R) 03 system (copyright 2003, Gaussian, Inc.),
 the Gaussian(R) 98 system (copyright 1998, Gaussian, Inc.),
 the Gaussian(R) 94 system (copyright 1995, Gaussian, Inc.),
 the Gaussian 92(TM) system (copyright 1992, Gaussian, Inc.),
 the Gaussian 90(TM) system (copyright 1990, Gaussian, Inc.),
 the Gaussian 88(TM) system (copyright 1988, Gaussian, Inc.),
 the Gaussian 86(TM) system (copyright 1986, Carnegie Mellon
 University), and the Gaussian 82(TM) system (copyright 1983,
 Carnegie Mellon University). Gaussian is a federally registered
 trademark of Gaussian, Inc.
  
 This software contains proprietary and confidential information,
 including trade secrets, belonging to Gaussian, Inc.
  
 This software is provided under written license and may be
 used, copied, transmitted, or stored only in accord with that
 written license.
  
 The following legend is applicable only to US Government
 contracts under FAR:
  
                    RESTRICTED RIGHTS LEGEND
  
 Use, reproduction and disclosure by the US Government is
 subject to restrictions as set forth in subparagraphs (a)
 and (c) of the Commercial Computer Software - Restricted
 Rights clause in FAR 52.227-19.
  
 Gaussian, Inc.
 340 Quinnipiac St., Bldg. 40, Wallingford CT 06492
  
  
 ---------------------------------------------------------------
 Warning -- This program may not be used in any manner that
 competes with the business of Gaussian, Inc. or will provide
 assistance to any competitor of Gaussian, Inc.  The licensee
 of this program is prohibited from giving any competitor of
 Gaussian, Inc. access to this program.  By using this program,
 the user acknowledges that Gaussian, Inc. is engaged in the
 business of creating and licensing software in the field of
 computational chemistry and represents and warrants to the
 licensee that it is not a competitor of Gaussian, Inc. and that
 it will not use this program in any manner prohibited above.
 ---------------------------------------------------------------
  

 Cite this work as:
 Gaussian 09, Revision D.01,
 M. J. Frisch, G. W. Trucks, H. B. Schlegel, G. E. Scuseria, 
 M. A. Robb, J. R. Cheeseman, G. Scalmani, V. Barone, B. Mennucci, 
 G. A. Petersson, H. Nakatsuji, M. Caricato, X. Li, H. P. Hratchian, 
 A. F. Izmaylov, J. Bloino, G. Zheng, J. L. Sonnenberg, M. Hada, 
 M. Ehara, K. Toyota, R. Fukuda, J. Hasegawa, M. Ishida, T. Nakajima, 
 Y. Honda, O. Kitao, H. Nakai, T. Vreven, J. A. Montgomery, Jr., 
 J. E. Peralta, F. Ogliaro, M. Bearpark, J. J. Heyd, E. Brothers, 
 K. N. Kudin, V. N. Staroverov, T. Keith, R. Kobayashi, J. Normand, 
 K. Raghavachari, A. Rendell, J. C. Burant, S. S. Iyengar, J. Tomasi, 
 M. Cossi, N. Rega, J. M. Millam, M. Klene, J. E. Knox, J. B. Cross, 
 V. Bakken, C. Adamo, J. Jaramillo, R. Gomperts, R. E. Stratmann, 
 O. Yazyev, A. J. Austin, R. Cammi, C. Pomelli, J. W. Ochterski, 
 R. L. Martin, K. Morokuma, V. G. Zakrzewski, G. A. Voth, 
 P. Salvador, J. J. Dannenberg, S. Dapprich, A. D. Daniels, 
 O. Farkas, J. B. Foresman, J. V. Ortiz, J. Cioslowski, 
 and D. J. Fox, Gaussian, Inc., Wallingford CT, 2013.
 
 ******************************************
 Gaussian 09:  IA32W-G09RevD.01 24-Apr-2013
                22-Mar-2017 
 ******************************************
 ----------------------------------------
 #P hf/6-31G* pop=full nosymm guess=cards
 ----------------------------------------
 1/38=1/1;
 2/12=2,15=1,17=6,18=5,40=1/2;
 3/5=1,6=6,7=1,11=9,16=1,25=1,30=1/1,2,3;
 4/14=1/1;
 5/5=2,38=5/2;
 6/7=3,28=1/1;
 99/5=1,9=1/99;
 Leave Link    1 at Wed Mar 22 14:57:10 2017, MaxMem=           0 cpu:         0.0
 (Enter d:\study\G09W\l101.exe)
 -----------------------------------------
 Please check this file to ensure validity
 -----------------------------------------
 Symbolic Z-matrix:
 Charge =  0 Multiplicity = 1
 N                     0.        0.        0.74008 
 H                     0.469    -0.81233   1.09843 
 H                    -0.938     0.        1.09843 
 H                     0.469     0.81233   1.09843 
 B                     0.        0.       -0.94711 
 H                     1.17083   0.       -1.24677 
 H                    -0.58542   1.01397  -1.24677 
 H                    -0.58542  -1.01397  -1.24677 
 
 NAtoms=      8 NQM=        8 NQMF=       0 NMMI=      0 NMMIF=      0
                NMic=       0 NMicF=      0.
                    Isotopes and Nuclear Properties:
 (Nuclear quadrupole moments (NQMom) in fm**2, nuclear magnetic moments (NMagM)
  in nuclear magnetons)

  Atom         1           2           3           4           5           6           7           8
 IAtWgt=          14           1           1           1          11           1           1           1
 AtmWgt=  14.0030740   1.0078250   1.0078250   1.0078250  11.0093053   1.0078250   1.0078250   1.0078250
 NucSpn=           2           1           1           1           3           1           1           1
 AtZEff=   0.0000000   0.0000000   0.0000000   0.0000000   0.0000000   0.0000000   0.0000000   0.0000000
 NQMom=    2.0440000   0.0000000   0.0000000   0.0000000   4.0590000   0.0000000   0.0000000   0.0000000
 NMagM=    0.4037610   2.7928460   2.7928460   2.7928460   2.6886370   2.7928460   2.7928460   2.7928460
 AtZNuc=   7.0000000   1.0000000   1.0000000   1.0000000   5.0000000   1.0000000   1.0000000   1.0000000
 Leave Link  101 at Wed Mar 22 14:57:10 2017, MaxMem=   183500800 cpu:         0.0
 (Enter d:\study\G09W\l202.exe)
                          Input orientation:                          
 ---------------------------------------------------------------------
 Center     Atomic      Atomic             Coordinates (Angstroms)
 Number     Number       Type             X           Y           Z
 ---------------------------------------------------------------------
      1          7           0        0.000000    0.000000    0.740080
      2          1           0        0.468997   -0.812327    1.098425
      3          1           0       -0.937995    0.000000    1.098425
      4          1           0        0.468998    0.812327    1.098425
      5          5           0        0.000000    0.000000   -0.947107
      6          1           0        1.170832    0.000000   -1.246766
      7          1           0       -0.585416    1.013970   -1.246766
      8          1           0       -0.585416   -1.013970   -1.246766
 ---------------------------------------------------------------------
                    Distance matrix (angstroms):
                    1          2          3          4          5
     1  N    0.000000
     2  H    1.004114   0.000000
     3  H    1.004114   1.624654   0.000000
     4  H    1.004114   1.624654   1.624655   0.000000
     5  B    1.687187   2.250341   2.250341   2.250341   0.000000
     6  H    2.306167   2.579219   3.153898   2.579218   1.208571
     7  H    2.306167   3.153897   2.579218   2.579219   1.208570
     8  H    2.306167   2.579218   2.579218   3.153898   1.208570
                    6          7          8
     6  H    0.000000
     7  H    2.027940   0.000000
     8  H    2.027940   2.027940   0.000000
 Symmetry turned off by external request.
 Stoichiometry    BH6N
 Framework group  C3V[C3(BN),3SGV(H2)]
 Deg. of freedom     5
 Full point group                 C3V     NOp   6
 Rotational constants (GHZ):     74.2671562     17.2561372     17.2561354
 Leave Link  202 at Wed Mar 22 14:57:10 2017, MaxMem=   183500800 cpu:         0.0
 (Enter d:\study\G09W\l301.exe)
 Standard basis: 6-31G(d) (6D, 7F)
 Ernie: Thresh=  0.10000D-02 Tol=  0.10000D-05 Strict=F.
    42 basis functions,    80 primitive gaussians,    42 cartesian basis functions
     9 alpha electrons        9 beta electrons
       nuclear repulsion energy        40.4529245011 Hartrees.
 IExCor=    0 DFT=F Ex=HF Corr=None ExCW=0 ScaHFX=  1.000000
 ScaDFX=  1.000000  1.000000  1.000000  1.000000 ScalE2=  1.000000  1.000000
 IRadAn=      0 IRanWt=     -1 IRanGd=            0 ICorTp=0 IEmpDi=  4
 NAtoms=    8 NActive=    8 NUniq=    8 SFac= 1.00D+00 NAtFMM=   60 NAOKFM=F Big=F
 Integral buffers will be    262144 words long.
 Raffenetti 1 integral format.
 Two-electron integral symmetry is turned off.
 Leave Link  301 at Wed Mar 22 14:57:10 2017, MaxMem=   183500800 cpu:         0.0
 (Enter d:\study\G09W\l302.exe)
 NPDir=0 NMtPBC=     1 NCelOv=     1 NCel=       1 NClECP=     1 NCelD=      1
         NCelK=      1 NCelE2=     1 NClLst=     1 CellRange=     0.0.
 One-electron integrals computed using PRISM.
 NBasis=    42 RedAO= T EigKep=  8.92D-03  NBF=    42
 NBsUse=    42 1.00D-06 EigRej= -1.00D+00 NBFU=    42
 Leave Link  302 at Wed Mar 22 14:57:10 2017, MaxMem=   183500800 cpu:         0.0
 (Enter d:\study\G09W\l303.exe)
 DipDrv:  MaxL=1.
 Leave Link  303 at Wed Mar 22 14:57:11 2017, MaxMem=   183500800 cpu:         1.0
 (Enter d:\study\G09W\l401.exe)
 ExpMin= 1.27D-01 ExpMax= 4.17D+03 ExpMxC= 6.27D+02 IAcc=1 IRadAn=         1 AccDes= 0.00D+00
 Harris functional with IExCor=  205 and IRadAn=       1 diagonalized for initial guess.
 HarFok:  IExCor=  205 AccDes= 0.00D+00 IRadAn=         1 IDoV= 1 UseB2=F ITyADJ=14
 ICtDFT=  3500011 ScaDFX=  1.000000  1.000000  1.000000  1.000000
 FoFCou: FMM=F IPFlag=           0 FMFlag=      100000 FMFlg1=           0
         NFxFlg=           0 DoJE=T BraDBF=F KetDBF=T FulRan=T
         wScrn=  0.000000 ICntrl=     500 IOpCl=  0 I1Cent=   200000004 NGrid=           0
         NMat0=    1 NMatS0=      1 NMatT0=    0 NMatD0=    1 NMtDS0=    0 NMtDT0=    0
 Symmetry not used in FoFCou.
 Harris En= -82.8728701421723    
 Replacement alpha orbitals read in format 5(E16.5).
 Complete set of vectors read in:
 Replacement for vector     1:
  0.99495000D+00 0.24830000D-01 0.00000000D+00 0.00000000D+00
  0.14800000D-02-0.15100000D-02 0.00000000D+00 0.00000000D+00
 -0.86000000D-03-0.35300000D-02-0.35300000D-02-0.33600000D-02
  0.00000000D+00 0.00000000D+00 0.00000000D+00 0.22000000D-03
  0.54000000D-03 0.22000000D-03 0.54000000D-03 0.22000000D-03
  0.54000000D-03 0.00000000D+00 0.00000000D+00 0.00000000D+00
  0.00000000D+00 0.00000000D+00 0.00000000D+00 0.00000000D+00
  0.00000000D+00 0.00000000D+00 0.00000000D+00 0.00000000D+00
  0.00000000D+00 0.00000000D+00 0.00000000D+00 0.00000000D+00
  0.00000000D+00 0.00000000D+00 0.00000000D+00 0.00000000D+00
  0.00000000D+00 0.00000000D+00
 Replacement for vector     2:
 -0.19776000D+00 0.41078000D+00 0.00000000D+00 0.00000000D+00
  0.85760000D-01 0.42908000D+00 0.00000000D+00 0.00000000D+00
  0.46420000D-01 0.15370000D-01 0.15370000D-01-0.72000000D-03
  0.00000000D+00 0.00000000D+00 0.00000000D+00 0.13715000D+00
  0.10130000D-01 0.13715000D+00 0.10130000D-01 0.13715000D+00
  0.10130000D-01 0.00000000D+00 0.00000000D+00 0.00000000D+00
  0.00000000D+00 0.00000000D+00 0.00000000D+00 0.00000000D+00
  0.00000000D+00 0.00000000D+00 0.00000000D+00 0.00000000D+00
  0.00000000D+00 0.00000000D+00 0.00000000D+00 0.00000000D+00
  0.00000000D+00 0.00000000D+00 0.00000000D+00 0.00000000D+00
  0.00000000D+00 0.00000000D+00
 Replacement for vector     3:
  0.00000000D+00 0.00000000D+00 0.43624000D+00 0.18103000D+00
  0.00000000D+00 0.00000000D+00 0.25715000D+00 0.10671000D+00
  0.00000000D+00-0.20030000D-01 0.20030000D-01 0.00000000D+00
  0.96000000D-02 0.35360000D-01 0.14670000D-01 0.35970000D-01
  0.21050000D-01-0.25582000D+00-0.14968000D+00 0.21985000D+00
  0.12863000D+00 0.00000000D+00 0.00000000D+00 0.00000000D+00
  0.00000000D+00 0.00000000D+00 0.00000000D+00 0.00000000D+00
  0.00000000D+00 0.00000000D+00 0.00000000D+00 0.00000000D+00
  0.00000000D+00 0.00000000D+00 0.00000000D+00 0.00000000D+00
  0.00000000D+00 0.00000000D+00 0.00000000D+00 0.00000000D+00
  0.00000000D+00 0.00000000D+00
 Replacement for vector     4:
  0.00000000D+00 0.00000000D+00-0.18103000D+00 0.43624000D+00
  0.00000000D+00 0.00000000D+00-0.10671000D+00 0.25715000D+00
  0.00000000D+00 0.83100000D-02-0.83100000D-02 0.00000000D+00
  0.23120000D-01-0.14670000D-01 0.35360000D-01-0.27463000D+00
 -0.16069000D+00 0.10616000D+00 0.62120000D-01 0.16847000D+00
  0.98570000D-01 0.00000000D+00 0.00000000D+00 0.00000000D+00
  0.00000000D+00 0.00000000D+00 0.00000000D+00 0.00000000D+00
  0.00000000D+00 0.00000000D+00 0.00000000D+00 0.00000000D+00
  0.00000000D+00 0.00000000D+00 0.00000000D+00 0.00000000D+00
  0.00000000D+00 0.00000000D+00 0.00000000D+00 0.00000000D+00
  0.00000000D+00 0.00000000D+00
 Replacement for vector     5:
  0.61140000D-01-0.14368000D+00 0.00000000D+00 0.00000000D+00
  0.55725000D+00-0.26125000D+00 0.00000000D+00 0.00000000D+00
  0.49552000D+00-0.84100000D-02-0.84100000D-02 0.31150000D-01
  0.00000000D+00 0.00000000D+00 0.00000000D+00 0.62860000D-01
  0.45610000D-01 0.62860000D-01 0.45610000D-01 0.62860000D-01
  0.45610000D-01 0.00000000D+00 0.00000000D+00 0.00000000D+00
  0.00000000D+00 0.00000000D+00 0.00000000D+00 0.00000000D+00
  0.00000000D+00 0.00000000D+00 0.00000000D+00 0.00000000D+00
  0.00000000D+00 0.00000000D+00 0.00000000D+00 0.00000000D+00
  0.00000000D+00 0.00000000D+00 0.00000000D+00 0.00000000D+00
  0.00000000D+00 0.00000000D+00
 Replacement for vector     6:
  0.00000000D+00 0.00000000D+00 0.00000000D+00 0.00000000D+00
  0.00000000D+00 0.00000000D+00 0.00000000D+00 0.00000000D+00
  0.00000000D+00 0.00000000D+00 0.00000000D+00 0.00000000D+00
  0.00000000D+00 0.00000000D+00 0.00000000D+00 0.00000000D+00
  0.00000000D+00 0.00000000D+00 0.00000000D+00 0.00000000D+00
  0.00000000D+00 0.99626000D+00 0.23560000D-01 0.00000000D+00
  0.00000000D+00 0.11200000D-02-0.11600000D-01 0.00000000D+00
  0.00000000D+00 0.22000000D-03 0.60000000D-04 0.60000000D-04
 -0.90000000D-03 0.00000000D+00 0.00000000D+00 0.00000000D+00
 -0.11000000D-03 0.23300000D-02-0.11000000D-03 0.23300000D-02
 -0.11000000D-03 0.23300000D-02
 Replacement for vector     7:
  0.00000000D+00 0.00000000D+00 0.00000000D+00 0.00000000D+00
  0.00000000D+00 0.00000000D+00 0.00000000D+00 0.00000000D+00
  0.00000000D+00 0.00000000D+00 0.00000000D+00 0.00000000D+00
  0.00000000D+00 0.00000000D+00 0.00000000D+00 0.00000000D+00
  0.00000000D+00 0.00000000D+00 0.00000000D+00 0.00000000D+00
  0.00000000D+00-0.18789000D+00 0.30442000D+00 0.00000000D+00
  0.00000000D+00-0.54370000D-01 0.24544000D+00 0.00000000D+00
  0.00000000D+00 0.59400000D-02 0.32460000D-01 0.32460000D-01
 -0.66900000D-02 0.00000000D+00 0.00000000D+00 0.00000000D+00
  0.16044000D+00 0.12553000D+00 0.16044000D+00 0.12553000D+00
  0.16044000D+00 0.12553000D+00
 Replacement for vector     8:
  0.00000000D+00 0.00000000D+00 0.00000000D+00 0.00000000D+00
  0.00000000D+00 0.00000000D+00 0.00000000D+00 0.00000000D+00
  0.00000000D+00 0.00000000D+00 0.00000000D+00 0.00000000D+00
  0.00000000D+00 0.00000000D+00 0.00000000D+00 0.00000000D+00
  0.00000000D+00 0.00000000D+00 0.00000000D+00 0.00000000D+00
  0.00000000D+00 0.00000000D+00 0.00000000D+00 0.40248000D+00
  0.00000000D+00 0.00000000D+00 0.00000000D+00 0.14754000D+00
  0.00000000D+00 0.00000000D+00 0.33910000D-01-0.33910000D-01
  0.00000000D+00 0.00000000D+00-0.14070000D-01 0.00000000D+00
  0.27022000D+00 0.30060000D+00-0.13511000D+00-0.15030000D+00
 -0.13511000D+00-0.15030000D+00
 Replacement for vector     9:
  0.00000000D+00 0.00000000D+00 0.00000000D+00 0.00000000D+00
  0.00000000D+00 0.00000000D+00 0.00000000D+00 0.00000000D+00
  0.00000000D+00 0.00000000D+00 0.00000000D+00 0.00000000D+00
  0.00000000D+00 0.00000000D+00 0.00000000D+00 0.00000000D+00
  0.00000000D+00 0.00000000D+00 0.00000000D+00 0.00000000D+00
  0.00000000D+00 0.00000000D+00 0.00000000D+00 0.00000000D+00
  0.40248000D+00 0.00000000D+00 0.00000000D+00 0.00000000D+00
  0.14754000D+00 0.00000000D+00 0.00000000D+00 0.00000000D+00
  0.00000000D+00-0.39160000D-01 0.00000000D+00-0.14070000D-01
  0.00000000D+00 0.00000000D+00 0.23402000D+00 0.26033000D+00
 -0.23402000D+00-0.26033000D+00
 Replacement for vector    10:
 -0.12632000D+00 0.10264000D+00 0.00000000D+00 0.00000000D+00
  0.14003000D+00 0.20045000D+01 0.00000000D+00 0.00000000D+00
  0.47479000D+00-0.39400000D-01-0.39400000D-01-0.40590000D-01
  0.00000000D+00 0.00000000D+00 0.00000000D+00-0.27940000D-01
 -0.98346000D+00-0.27940000D-01-0.98346000D+00-0.27940000D-01
 -0.98346000D+00 0.00000000D+00 0.00000000D+00 0.00000000D+00
  0.00000000D+00 0.00000000D+00 0.00000000D+00 0.00000000D+00
  0.00000000D+00 0.00000000D+00 0.00000000D+00 0.00000000D+00
  0.00000000D+00 0.00000000D+00 0.00000000D+00 0.00000000D+00
  0.00000000D+00 0.00000000D+00 0.00000000D+00 0.00000000D+00
  0.00000000D+00 0.00000000D+00
 Replacement for vector    11:
  0.00000000D+00 0.00000000D+00 0.30445000D+00 0.12635000D+00
  0.00000000D+00 0.00000000D+00 0.10481000D+01 0.43499000D+00
  0.00000000D+00 0.15400000D-02-0.15400000D-02 0.00000000D+00
 -0.74000000D-03 0.15190000D-01 0.63100000D-02-0.56400000D-02
 -0.23335000D+00 0.40110000D-01 0.16599000D+01-0.34470000D-01
 -0.14266000D+01 0.00000000D+00 0.00000000D+00 0.00000000D+00
  0.00000000D+00 0.00000000D+00 0.00000000D+00 0.00000000D+00
  0.00000000D+00 0.00000000D+00 0.00000000D+00 0.00000000D+00
  0.00000000D+00 0.00000000D+00 0.00000000D+00 0.00000000D+00
  0.00000000D+00 0.00000000D+00 0.00000000D+00 0.00000000D+00
  0.00000000D+00 0.00000000D+00
 Replacement for vector    12:
  0.00000000D+00 0.00000000D+00-0.12635000D+00 0.30445000D+00
  0.00000000D+00 0.00000000D+00-0.43499000D+00 0.10481000D+01
  0.00000000D+00-0.64000000D-03 0.64000000D-03 0.00000000D+00
 -0.17700000D-02-0.63100000D-02 0.15190000D-01 0.43060000D-01
  0.17820000D+01-0.16650000D-01-0.68890000D+00-0.26410000D-01
 -0.10931000D+01 0.00000000D+00 0.00000000D+00 0.00000000D+00
  0.00000000D+00 0.00000000D+00 0.00000000D+00 0.00000000D+00
  0.00000000D+00 0.00000000D+00 0.00000000D+00 0.00000000D+00
  0.00000000D+00 0.00000000D+00 0.00000000D+00 0.00000000D+00
  0.00000000D+00 0.00000000D+00 0.00000000D+00 0.00000000D+00
  0.00000000D+00 0.00000000D+00
 Replacement for vector    13:
  0.00000000D+00 0.00000000D+00 0.14110000D+00-0.33997000D+00
  0.00000000D+00 0.00000000D+00-0.47479000D+00 0.11440000D+01
  0.00000000D+00-0.46810000D-01 0.46810000D-01 0.00000000D+00
 -0.13024000D+00 0.30550000D-01-0.73610000D-01 0.76260000D+00
 -0.11400000D-01-0.29482000D+00 0.44100000D-02-0.46778000D+00
  0.69900000D-02 0.00000000D+00 0.00000000D+00 0.00000000D+00
  0.00000000D+00 0.00000000D+00 0.00000000D+00 0.00000000D+00
  0.00000000D+00 0.00000000D+00 0.00000000D+00 0.00000000D+00
  0.00000000D+00 0.00000000D+00 0.00000000D+00 0.00000000D+00
  0.00000000D+00 0.00000000D+00 0.00000000D+00 0.00000000D+00
  0.00000000D+00 0.00000000D+00
 Replacement for vector    14:
  0.00000000D+00 0.00000000D+00-0.33997000D+00-0.14110000D+00
  0.00000000D+00 0.00000000D+00 0.11440000D+01 0.47479000D+00
  0.00000000D+00 0.11279000D+00-0.11279000D+00 0.00000000D+00
 -0.54050000D-01-0.73610000D-01-0.30550000D-01-0.99860000D-01
  0.14900000D-02 0.71036000D+00-0.10620000D-01-0.61050000D+00
  0.91300000D-02 0.00000000D+00 0.00000000D+00 0.00000000D+00
  0.00000000D+00 0.00000000D+00 0.00000000D+00 0.00000000D+00
  0.00000000D+00 0.00000000D+00 0.00000000D+00 0.00000000D+00
  0.00000000D+00 0.00000000D+00 0.00000000D+00 0.00000000D+00
  0.00000000D+00 0.00000000D+00 0.00000000D+00 0.00000000D+00
  0.00000000D+00 0.00000000D+00
 Replacement for vector    15:
 -0.17360000D-01 0.23594000D+00 0.00000000D+00 0.00000000D+00
 -0.95999000D+00-0.13998000D+00 0.00000000D+00 0.00000000D+00
  0.10832000D+01 0.57980000D-01 0.57980000D-01 0.75770000D-01
  0.00000000D+00 0.00000000D+00 0.00000000D+00-0.11270000D+00
 -0.40940000D-01-0.11270000D+00-0.40940000D-01-0.11270000D+00
 -0.40940000D-01 0.00000000D+00 0.00000000D+00 0.00000000D+00
  0.00000000D+00 0.00000000D+00 0.00000000D+00 0.00000000D+00
  0.00000000D+00 0.00000000D+00 0.00000000D+00 0.00000000D+00
  0.00000000D+00 0.00000000D+00 0.00000000D+00 0.00000000D+00
  0.00000000D+00 0.00000000D+00 0.00000000D+00 0.00000000D+00
  0.00000000D+00 0.00000000D+00
 Replacement for vector    16:
  0.66870000D-01-0.60410000D+00 0.10000000D-04-0.10000000D-04
 -0.33033000D+00 0.74418000D+00-0.10000000D-04 0.10000000D-04
  0.41050000D-01 0.22860000D-01 0.22860000D-01-0.27765000D+00
  0.00000000D+00 0.00000000D+00 0.00000000D+00 0.70762000D+00
 -0.49729000D+00 0.70763000D+00-0.49732000D+00 0.70763000D+00
 -0.49731000D+00 0.00000000D+00 0.00000000D+00 0.00000000D+00
  0.00000000D+00 0.00000000D+00 0.00000000D+00 0.00000000D+00
  0.00000000D+00 0.00000000D+00 0.00000000D+00 0.00000000D+00
  0.00000000D+00 0.00000000D+00 0.00000000D+00 0.00000000D+00
  0.00000000D+00 0.00000000D+00 0.00000000D+00 0.00000000D+00
  0.00000000D+00 0.00000000D+00
 Replacement for vector    17:
  0.00000000D+00 0.00000000D+00-0.94779000D+00-0.39336000D+00
  0.00000000D+00 0.00000000D+00 0.12195000D+01 0.50615000D+00
  0.00000000D+00-0.10207000D+00 0.10207000D+00 0.00000000D+00
  0.48920000D-01 0.70920000D-01 0.29430000D-01 0.72340000D-01
 -0.17525000D+00-0.51457000D+00 0.12466000D+01 0.44224000D+00
 -0.10714000D+01 0.00000000D+00 0.00000000D+00 0.00000000D+00
  0.00000000D+00 0.00000000D+00 0.00000000D+00 0.00000000D+00
  0.00000000D+00 0.00000000D+00 0.00000000D+00 0.00000000D+00
  0.00000000D+00 0.00000000D+00 0.00000000D+00 0.00000000D+00
  0.00000000D+00 0.00000000D+00 0.00000000D+00 0.00000000D+00
  0.00000000D+00 0.00000000D+00
 Replacement for vector    18:
  0.00000000D+00 0.10000000D-04 0.39336000D+00-0.94779000D+00
  0.00000000D+00-0.10000000D-04-0.50615000D+00 0.12195000D+01
  0.00000000D+00 0.42360000D-01-0.42360000D-01 0.00000000D+00
  0.11786000D+00-0.29430000D-01 0.70920000D-01-0.55243000D+00
  0.13383000D+01 0.21356000D+00-0.51738000D+00 0.33884000D+00
 -0.82091000D+00 0.00000000D+00 0.00000000D+00 0.00000000D+00
  0.00000000D+00 0.00000000D+00 0.00000000D+00 0.00000000D+00
  0.00000000D+00 0.00000000D+00 0.00000000D+00 0.00000000D+00
  0.00000000D+00 0.00000000D+00 0.00000000D+00 0.00000000D+00
  0.00000000D+00 0.00000000D+00 0.00000000D+00 0.00000000D+00
  0.00000000D+00 0.00000000D+00
 Replacement for vector    19:
 -0.89270000D-01-0.15714000D+01 0.00000000D+00 0.00000000D+00
 -0.17057000D+00 0.42097000D+01 0.00000000D+00 0.00000000D+00
  0.77865000D+00-0.41381000D+00-0.41381000D+00-0.11022000D+00
  0.00000000D+00 0.00000000D+00 0.00000000D+00-0.28957000D+00
 -0.83046000D+00-0.28957000D+00-0.83045000D+00-0.28957000D+00
 -0.83045000D+00 0.00000000D+00 0.00000000D+00 0.00000000D+00
  0.00000000D+00 0.00000000D+00 0.00000000D+00 0.00000000D+00
  0.00000000D+00 0.00000000D+00 0.00000000D+00 0.00000000D+00
  0.00000000D+00 0.00000000D+00 0.00000000D+00 0.00000000D+00
  0.00000000D+00 0.00000000D+00 0.00000000D+00 0.00000000D+00
  0.00000000D+00 0.00000000D+00
 Replacement for vector    20:
  0.00000000D+00 0.00000000D+00-0.20340000D-01-0.84400000D-02
  0.00000000D+00 0.00000000D+00-0.33440000D-01-0.13880000D-01
  0.00000000D+00 0.49315000D+00-0.49315000D+00 0.00000000D+00
 -0.23633000D+00 0.72645000D+00 0.30149000D+00 0.47500000D-02
  0.60000000D-04-0.33760000D-01-0.42000000D-03 0.29020000D-01
  0.36000000D-03 0.00000000D+00 0.00000000D+00 0.00000000D+00
  0.00000000D+00 0.00000000D+00 0.00000000D+00 0.00000000D+00
  0.00000000D+00 0.00000000D+00 0.00000000D+00 0.00000000D+00
  0.00000000D+00 0.00000000D+00 0.00000000D+00 0.00000000D+00
  0.00000000D+00 0.00000000D+00 0.00000000D+00 0.00000000D+00
  0.00000000D+00 0.00000000D+00
 Replacement for vector    21:
  0.00000000D+00 0.00000000D+00 0.84400000D-02-0.20340000D-01
  0.00000000D+00 0.00000000D+00 0.13880000D-01-0.33440000D-01
  0.00000000D+00-0.20467000D+00 0.20467000D+00 0.00000000D+00
 -0.56944000D+00-0.30149000D+00 0.72645000D+00-0.36240000D-01
 -0.45000000D-03 0.14010000D-01 0.17000000D-03 0.22230000D-01
  0.28000000D-03 0.00000000D+00 0.00000000D+00 0.00000000D+00
  0.00000000D+00 0.00000000D+00 0.00000000D+00 0.00000000D+00
  0.00000000D+00 0.00000000D+00 0.00000000D+00 0.00000000D+00
  0.00000000D+00 0.00000000D+00 0.00000000D+00 0.00000000D+00
  0.00000000D+00 0.00000000D+00 0.00000000D+00 0.00000000D+00
  0.00000000D+00 0.00000000D+00
 Replacement for vector    22:
 -0.58850000D-01-0.41742000D+00 0.00000000D+00 0.00000000D+00
  0.37690000D-01 0.15247000D+01 0.00000000D+00 0.00000000D+00
  0.42182000D+00 0.44849000D+00 0.44849000D+00-0.10759000D+01
  0.00000000D+00 0.00000000D+00 0.00000000D+00-0.49948000D+00
 -0.19440000D+00-0.49948000D+00-0.19440000D+00-0.49948000D+00
 -0.19440000D+00 0.00000000D+00 0.00000000D+00 0.00000000D+00
  0.00000000D+00 0.00000000D+00 0.00000000D+00 0.00000000D+00
  0.00000000D+00 0.00000000D+00 0.00000000D+00 0.00000000D+00
  0.00000000D+00 0.00000000D+00 0.00000000D+00 0.00000000D+00
  0.00000000D+00 0.00000000D+00 0.00000000D+00 0.00000000D+00
  0.00000000D+00 0.00000000D+00
 Replacement for vector    23:
  0.00000000D+00 0.00000000D+00 0.90830000D-01 0.37700000D-01
  0.00000000D+00 0.00000000D+00 0.63149000D+00 0.26208000D+00
  0.00000000D+00-0.76360000D+00 0.76360000D+00 0.00000000D+00
  0.36594000D+00 0.69057000D+00 0.28660000D+00-0.12354000D+00
  0.17200000D-02 0.87879000D+00-0.12210000D-01-0.75525000D+00
  0.10490000D-01 0.00000000D+00 0.00000000D+00 0.00000000D+00
  0.00000000D+00 0.00000000D+00 0.00000000D+00 0.00000000D+00
  0.00000000D+00 0.00000000D+00 0.00000000D+00 0.00000000D+00
  0.00000000D+00 0.00000000D+00 0.00000000D+00 0.00000000D+00
  0.00000000D+00 0.00000000D+00 0.00000000D+00 0.00000000D+00
  0.00000000D+00 0.00000000D+00
 Replacement for vector    24:
  0.00000000D+00 0.00000000D+00-0.37700000D-01 0.90830000D-01
  0.00000000D+00 0.00000000D+00-0.26208000D+00 0.63149000D+00
  0.00000000D+00 0.31691000D+00-0.31691000D+00 0.00000000D+00
  0.88173000D+00-0.28660000D+00 0.69057000D+00 0.94342000D+00
 -0.13110000D-01-0.36472000D+00 0.50700000D-02-0.57870000D+00
  0.80400000D-02 0.00000000D+00 0.00000000D+00 0.00000000D+00
  0.00000000D+00 0.00000000D+00 0.00000000D+00 0.00000000D+00
  0.00000000D+00 0.00000000D+00 0.00000000D+00 0.00000000D+00
  0.00000000D+00 0.00000000D+00 0.00000000D+00 0.00000000D+00
  0.00000000D+00 0.00000000D+00 0.00000000D+00 0.00000000D+00
  0.00000000D+00 0.00000000D+00
 Replacement for vector    25:
 -0.46451000D+00 0.11977000D+01 0.00000000D+00 0.00000000D+00
 -0.94890000D-01 0.31490000D+01 0.00000000D+00 0.00000000D+00
  0.29433000D+00-0.15064000D+01-0.15064000D+01-0.15161000D+01
  0.00000000D+00 0.00000000D+00 0.00000000D+00 0.15330000D+00
 -0.55968000D+00 0.15330000D+00-0.55968000D+00 0.15330000D+00
 -0.55968000D+00 0.00000000D+00 0.00000000D+00 0.00000000D+00
  0.00000000D+00 0.00000000D+00 0.00000000D+00 0.00000000D+00
  0.00000000D+00 0.00000000D+00 0.00000000D+00 0.00000000D+00
  0.00000000D+00 0.00000000D+00 0.00000000D+00 0.00000000D+00
  0.00000000D+00 0.00000000D+00 0.00000000D+00 0.00000000D+00
  0.00000000D+00 0.00000000D+00
 Replacement for vector    26:
  0.00000000D+00 0.00000000D+00 0.00000000D+00 0.00000000D+00
  0.00000000D+00 0.00000000D+00 0.00000000D+00 0.00000000D+00
  0.00000000D+00 0.00000000D+00 0.00000000D+00 0.00000000D+00
  0.00000000D+00 0.00000000D+00 0.00000000D+00 0.00000000D+00
  0.00000000D+00 0.00000000D+00 0.00000000D+00 0.00000000D+00
  0.00000000D+00-0.52670000D-01 0.26920000D-01 0.00000000D+00
  0.00000000D+00 0.33648000D+00 0.37273000D+00 0.00000000D+00
  0.00000000D+00 0.67898000D+00-0.18300000D-02-0.18300000D-02
  0.87700000D-02 0.00000000D+00 0.00000000D+00 0.00000000D+00
 -0.41450000D-01-0.85830000D-01-0.41450000D-01-0.85830000D-01
 -0.41450000D-01-0.85830000D-01
 Replacement for vector    27:
  0.00000000D+00 0.00000000D+00 0.00000000D+00 0.00000000D+00
  0.00000000D+00 0.00000000D+00 0.00000000D+00 0.00000000D+00
  0.00000000D+00 0.00000000D+00 0.00000000D+00 0.00000000D+00
  0.00000000D+00 0.00000000D+00 0.00000000D+00 0.00000000D+00
  0.00000000D+00 0.00000000D+00 0.00000000D+00 0.00000000D+00
  0.00000000D+00 0.00000000D+00 0.00000000D+00 0.00000000D+00
  0.20109000D+00 0.00000000D+00 0.00000000D+00 0.00000000D+00
  0.18778000D+01 0.00000000D+00 0.00000000D+00 0.00000000D+00
  0.00000000D+00 0.23730000D-01 0.00000000D+00 0.77600000D-02
  0.00000000D+00 0.00000000D+00-0.79440000D-01-0.16119000D+01
  0.79440000D-01 0.16119000D+01
 Replacement for vector    28:
  0.00000000D+00 0.00000000D+00 0.00000000D+00 0.00000000D+00
  0.00000000D+00 0.00000000D+00 0.00000000D+00 0.00000000D+00
  0.00000000D+00 0.00000000D+00 0.00000000D+00 0.00000000D+00
  0.00000000D+00 0.00000000D+00 0.00000000D+00 0.00000000D+00
  0.00000000D+00 0.00000000D+00 0.00000000D+00 0.00000000D+00
  0.00000000D+00 0.00000000D+00 0.00000000D+00 0.20109000D+00
  0.00000000D+00 0.00000000D+00 0.00000000D+00 0.18778000D+01
  0.00000000D+00 0.00000000D+00-0.20550000D-01 0.20550000D-01
  0.00000000D+00 0.00000000D+00 0.77600000D-02 0.00000000D+00
 -0.91730000D-01-0.18612000D+01 0.45860000D-01 0.93062000D+00
  0.45860000D-01 0.93062000D+00
 Replacement for vector    29:
  0.00000000D+00 0.00000000D+00 0.00000000D+00 0.00000000D+00
  0.00000000D+00 0.00000000D+00 0.00000000D+00 0.00000000D+00
  0.00000000D+00 0.00000000D+00 0.00000000D+00 0.00000000D+00
  0.00000000D+00 0.00000000D+00 0.00000000D+00 0.00000000D+00
  0.00000000D+00 0.00000000D+00 0.00000000D+00 0.00000000D+00
  0.00000000D+00-0.15893000D+00 0.17201000D+00 0.00000000D+00
  0.00000000D+00-0.66370000D-01 0.28028000D+01 0.00000000D+00
  0.00000000D+00-0.69801000D+00 0.24910000D-01 0.24910000D-01
  0.34190000D-01 0.00000000D+00 0.00000000D+00 0.00000000D+00
 -0.16750000D-01-0.14204000D+01-0.16750000D-01-0.14204000D+01
 -0.16750000D-01-0.14204000D+01
 Replacement for vector    30:
  0.00000000D+00 0.00000000D+00 0.00000000D+00 0.00000000D+00
  0.00000000D+00 0.00000000D+00 0.00000000D+00 0.00000000D+00
  0.00000000D+00 0.00000000D+00 0.00000000D+00 0.00000000D+00
  0.00000000D+00 0.00000000D+00 0.00000000D+00 0.00000000D+00
  0.00000000D+00 0.00000000D+00 0.00000000D+00 0.00000000D+00
  0.00000000D+00 0.00000000D+00 0.00000000D+00 0.00000000D+00
 -0.10239000D+01 0.00000000D+00 0.00000000D+00 0.00000000D+00
  0.10818000D+01 0.00000000D+00 0.00000000D+00 0.00000000D+00
  0.00000000D+00 0.56260000D-01 0.00000000D+00 0.19950000D-01
  0.00000000D+00 0.00000000D+00-0.21434000D+00 0.16363000D+00
  0.21434000D+00-0.16363000D+00
 Replacement for vector    31:
  0.00000000D+00 0.00000000D+00 0.00000000D+00 0.00000000D+00
  0.00000000D+00 0.00000000D+00 0.00000000D+00 0.00000000D+00
  0.00000000D+00 0.00000000D+00 0.00000000D+00 0.00000000D+00
  0.00000000D+00 0.00000000D+00 0.00000000D+00 0.00000000D+00
  0.00000000D+00 0.00000000D+00 0.00000000D+00 0.00000000D+00
  0.00000000D+00 0.00000000D+00 0.00000000D+00-0.10239000D+01
  0.00000000D+00 0.00000000D+00 0.00000000D+00 0.10818000D+01
  0.00000000D+00 0.00000000D+00-0.48720000D-01 0.48720000D-01
  0.00000000D+00 0.00000000D+00 0.19950000D-01 0.00000000D+00
 -0.24750000D+00 0.18894000D+00 0.12375000D+00-0.94470000D-01
  0.12375000D+00-0.94470000D-01
 Replacement for vector    32:
  0.00000000D+00 0.00000000D+00 0.00000000D+00 0.00000000D+00
  0.00000000D+00 0.00000000D+00 0.00000000D+00 0.00000000D+00
  0.00000000D+00 0.00000000D+00 0.00000000D+00 0.00000000D+00
  0.00000000D+00 0.00000000D+00 0.00000000D+00 0.00000000D+00
  0.00000000D+00 0.00000000D+00 0.00000000D+00 0.00000000D+00
  0.00000000D+00-0.32410000D-01-0.28238000D+00 0.00000000D+00
  0.00000000D+00 0.11565000D+01 0.74499000D+00 0.00000000D+00
  0.00000000D+00-0.11114000D+01-0.42540000D-01-0.42540000D-01
  0.34200000D-01 0.00000000D+00 0.00000000D+00 0.00000000D+00
 -0.12875000D+00-0.11986000D+00-0.12875000D+00-0.11986000D+00
 -0.12875000D+00-0.11986000D+00
 Replacement for vector    33:
  0.00000000D+00 0.00000000D+00 0.00000000D+00 0.00000000D+00
  0.00000000D+00 0.00000000D+00 0.00000000D+00 0.00000000D+00
  0.00000000D+00 0.00000000D+00 0.00000000D+00 0.00000000D+00
  0.00000000D+00 0.00000000D+00 0.00000000D+00 0.00000000D+00
  0.00000000D+00 0.00000000D+00 0.00000000D+00 0.00000000D+00
  0.00000000D+00-0.51100000D-01-0.15991000D+01 0.00000000D+00
  0.00000000D+00-0.34670000D+00 0.33300000D+01 0.00000000D+00
  0.00000000D+00-0.14887000D+00-0.14329000D+00-0.14329000D+00
 -0.88000000D-03 0.00000000D+00 0.00000000D+00 0.00000000D+00
 -0.21909000D+00-0.64511000D+00-0.21909000D+00-0.64511000D+00
 -0.21909000D+00-0.64511000D+00
 Replacement for vector    34:
  0.00000000D+00 0.00000000D+00 0.00000000D+00 0.00000000D+00
  0.00000000D+00 0.00000000D+00 0.00000000D+00 0.00000000D+00
  0.00000000D+00 0.00000000D+00 0.00000000D+00 0.00000000D+00
  0.00000000D+00 0.00000000D+00 0.00000000D+00 0.00000000D+00
  0.00000000D+00 0.00000000D+00 0.00000000D+00 0.00000000D+00
  0.00000000D+00 0.00000000D+00 0.00000000D+00 0.68091000D+00
  0.00000000D+00 0.00000000D+00-0.10000000D-04-0.12747000D+01
  0.00000000D+00 0.00000000D+00-0.32056000D+00 0.32056000D+00
  0.00000000D+00 0.00000000D+00 0.19062000D+00 0.00000000D+00
 -0.83649000D+00 0.16487000D+01 0.41824000D+00-0.82433000D+00
  0.41824000D+00-0.82433000D+00
 Replacement for vector    35:
  0.00000000D+00 0.00000000D+00 0.00000000D+00 0.00000000D+00
  0.00000000D+00 0.00000000D+00 0.00000000D+00 0.00000000D+00
  0.00000000D+00 0.00000000D+00 0.00000000D+00 0.00000000D+00
  0.00000000D+00 0.00000000D+00 0.00000000D+00 0.00000000D+00
  0.00000000D+00 0.00000000D+00 0.00000000D+00 0.00000000D+00
  0.00000000D+00 0.00000000D+00 0.00000000D+00 0.00000000D+00
  0.68091000D+00 0.00000000D+00 0.00000000D+00 0.00000000D+00
 -0.12747000D+01 0.00000000D+00 0.00000000D+00 0.00000000D+00
  0.00000000D+00 0.37015000D+00 0.00000000D+00 0.19062000D+00
  0.00000000D+00 0.00000000D+00-0.72442000D+00 0.14278000D+01
  0.72442000D+00-0.14278000D+01
 Replacement for vector    36:
  0.00000000D+00 0.00000000D+00 0.00000000D+00 0.00000000D+00
  0.00000000D+00 0.00000000D+00 0.00000000D+00 0.00000000D+00
  0.00000000D+00 0.00000000D+00 0.00000000D+00 0.00000000D+00
  0.00000000D+00 0.00000000D+00 0.00000000D+00 0.00000000D+00
  0.00000000D+00 0.00000000D+00 0.00000000D+00 0.00000000D+00
  0.00000000D+00 0.46150000D-01-0.12869000D+01 0.00000000D+00
  0.00000000D+00 0.27380000D+00 0.31109000D+01 0.00000000D+00
  0.00000000D+00-0.53436000D+00 0.11799000D+00 0.11800000D+00
 -0.31692000D+00 0.00000000D+00 0.00000000D+00 0.00000000D+00
  0.64155000D+00-0.13249000D+01 0.64156000D+00-0.13249000D+01
  0.64156000D+00-0.13249000D+01
 Replacement for vector    37:
  0.00000000D+00 0.00000000D+00 0.00000000D+00 0.00000000D+00
  0.00000000D+00 0.00000000D+00 0.00000000D+00 0.00000000D+00
  0.00000000D+00 0.00000000D+00 0.00000000D+00 0.00000000D+00
  0.00000000D+00 0.00000000D+00 0.00000000D+00 0.00000000D+00
  0.00000000D+00 0.00000000D+00 0.00000000D+00 0.00000000D+00
  0.00000000D+00 0.00000000D+00 0.00000000D+00-0.66000000D-02
  0.00000000D+00 0.00000000D+00 0.00000000D+00 0.18670000D-01
  0.00000000D+00 0.00000000D+00 0.40371000D+00-0.40371000D+00
  0.00000000D+00 0.00000000D+00 0.88465000D+00 0.00000000D+00
 -0.12940000D-01-0.62600000D-02 0.64700000D-02 0.31300000D-02
  0.64700000D-02 0.31300000D-02
 Replacement for vector    38:
  0.00000000D+00 0.00000000D+00 0.00000000D+00 0.00000000D+00
  0.00000000D+00 0.00000000D+00 0.00000000D+00 0.00000000D+00
  0.00000000D+00 0.00000000D+00 0.00000000D+00 0.00000000D+00
  0.00000000D+00 0.00000000D+00 0.00000000D+00 0.00000000D+00
  0.00000000D+00 0.00000000D+00 0.00000000D+00 0.00000000D+00
  0.00000000D+00 0.00000000D+00 0.00000000D+00 0.00000000D+00
 -0.66000000D-02 0.00000000D+00 0.00000000D+00 0.00000000D+00
  0.18670000D-01 0.00000000D+00 0.00000000D+00 0.00000000D+00
  0.00000000D+00-0.46617000D+00 0.00000000D+00 0.88465000D+00
  0.00000000D+00 0.00000000D+00-0.11200000D-01-0.54200000D-02
  0.11200000D-01 0.54200000D-02
 Replacement for vector    39:
  0.00000000D+00 0.00000000D+00 0.00000000D+00 0.00000000D+00
  0.00000000D+00 0.00000000D+00 0.00000000D+00 0.00000000D+00
  0.00000000D+00 0.00000000D+00 0.00000000D+00 0.00000000D+00
  0.00000000D+00 0.00000000D+00 0.00000000D+00 0.00000000D+00
  0.00000000D+00 0.00000000D+00 0.00000000D+00 0.00000000D+00
  0.00000000D+00 0.66970000D-01-0.84100000D-02 0.00000000D+00
  0.00000000D+00 0.64480000D-01-0.61665000D+00 0.00000000D+00
  0.00000000D+00 0.13995000D+00-0.48562000D+00-0.48562000D+00
  0.10549000D+01 0.00000000D+00 0.00000000D+00 0.00000000D+00
  0.42123000D+00 0.51070000D-01 0.42123000D+00 0.51070000D-01
  0.42123000D+00 0.51070000D-01
 Replacement for vector    40:
  0.00000000D+00 0.00000000D+00 0.00000000D+00 0.00000000D+00
  0.00000000D+00 0.00000000D+00 0.00000000D+00 0.00000000D+00
  0.00000000D+00 0.00000000D+00 0.00000000D+00 0.00000000D+00
  0.00000000D+00 0.00000000D+00 0.00000000D+00 0.00000000D+00
  0.00000000D+00 0.00000000D+00 0.00000000D+00 0.00000000D+00
  0.00000000D+00 0.00000000D+00 0.00000000D+00-0.31314000D+00
  0.00000000D+00 0.00000000D+00 0.00000000D+00-0.20558000D+00
  0.00000000D+00 0.00000000D+00-0.83587000D+00 0.83587000D+00
  0.00000000D+00 0.00000000D+00 0.50665000D+00 0.00000000D+00
  0.89606000D+00-0.25055000D+00-0.44803000D+00 0.12528000D+00
 -0.44803000D+00 0.12528000D+00
 Replacement for vector    41:
  0.00000000D+00 0.00000000D+00 0.00000000D+00 0.00000000D+00
  0.00000000D+00 0.00000000D+00 0.00000000D+00 0.00000000D+00
  0.00000000D+00 0.00000000D+00 0.00000000D+00 0.00000000D+00
  0.00000000D+00 0.00000000D+00 0.00000000D+00 0.00000000D+00
  0.00000000D+00 0.00000000D+00 0.00000000D+00 0.00000000D+00
  0.00000000D+00 0.00000000D+00 0.00000000D+00 0.00000000D+00
 -0.31314000D+00 0.00000000D+00 0.00000000D+00 0.00000000D+00
 -0.20558000D+00 0.00000000D+00 0.00000000D+00 0.00000000D+00
  0.00000000D+00 0.96518000D+00 0.00000000D+00 0.50665000D+00
  0.00000000D+00 0.00000000D+00 0.77601000D+00-0.21699000D+00
 -0.77601000D+00 0.21699000D+00
 Replacement for vector    42:
  0.00000000D+00 0.00000000D+00 0.00000000D+00 0.00000000D+00
  0.00000000D+00 0.00000000D+00 0.00000000D+00 0.00000000D+00
  0.00000000D+00 0.00000000D+00 0.00000000D+00 0.00000000D+00
  0.00000000D+00 0.00000000D+00 0.00000000D+00 0.00000000D+00
  0.00000000D+00 0.00000000D+00 0.00000000D+00 0.00000000D+00
  0.00000000D+00-0.47251000D+00 0.41915000D+01 0.00000000D+00
  0.00000000D+00 0.38090000D-01 0.10451000D+01 0.00000000D+00
  0.00000000D+00-0.12311000D+00-0.21170000D+01-0.21170000D+01
 -0.20643000D+01 0.00000000D+00 0.00000000D+00 0.00000000D+00
  0.18695000D+00-0.35317000D+00 0.18695000D+00-0.35317000D+00
  0.18695000D+00-0.35317000D+00
 JPrj=0 DoOrth=T DoCkMO=T.
 Leave Link  401 at Wed Mar 22 14:57:11 2017, MaxMem=   183500800 cpu:         0.0
 (Enter d:\study\G09W\l502.exe)
 Closed shell SCF:
 Using DIIS extrapolation, IDIIS=  1040.
 Two-electron integral symmetry not used.
 Keep R1 ints in memory in canonical form, NReq=1269750.
 IVT=       24222 IEndB=       24222 NGot=   183500800 MDV=   183068423
 LenX=   183068423 LenY=   183066218
 Requested convergence on RMS density matrix=1.00D-08 within 128 cycles.
 Requested convergence on MAX density matrix=1.00D-06.
 Requested convergence on             energy=1.00D-06.
 No special actions if energy rises.
 FoFCou: FMM=F IPFlag=           0 FMFlag=           0 FMFlg1=           0
         NFxFlg=           0 DoJE=F BraDBF=F KetDBF=F FulRan=T
         wScrn=  0.000000 ICntrl=     600 IOpCl=  0 I1Cent=           0 NGrid=           0
         NMat0=    1 NMatS0=    903 NMatT0=    0 NMatD0=    1 NMtDS0=    0 NMtDT0=    0
 Symmetry not used in FoFCou.

 Cycle   1  Pass 1  IDiag  1:
 E= -82.5352762791642    
 DIIS: error= 5.16D-02 at cycle   1 NSaved=   1.
 NSaved= 1 IEnMin= 1 EnMin= -82.5352762791642     IErMin= 1 ErrMin= 5.16D-02
 ErrMax= 5.16D-02  0.00D+00 EMaxC= 1.00D-01 BMatC= 3.41D-02 BMatP= 3.41D-02
 IDIUse=3 WtCom= 4.84D-01 WtEn= 5.16D-01
 Coeff-Com:  0.100D+01
 Coeff-En:   0.100D+01
 Coeff:      0.100D+01
 Gap=     0.649 Goal=   None    Shift=    0.000
 GapD=    0.649 DampG=2.000 DampE=0.500 DampFc=1.0000 IDamp=-1.
 RMSDP=6.04D-03 MaxDP=6.59D-02              OVMax= 1.32D-01

 Cycle   2  Pass 1  IDiag  1:
 E= -82.6026726065039     Delta-E=       -0.067396327340 Rises=F Damp=F
 DIIS: error= 1.16D-02 at cycle   2 NSaved=   2.
 NSaved= 2 IEnMin= 2 EnMin= -82.6026726065039     IErMin= 2 ErrMin= 1.16D-02
 ErrMax= 1.16D-02  0.00D+00 EMaxC= 1.00D-01 BMatC= 3.57D-03 BMatP= 3.41D-02
 IDIUse=3 WtCom= 8.84D-01 WtEn= 1.16D-01
 Coeff-Com: -0.216D+00 0.122D+01
 Coeff-En:   0.000D+00 0.100D+01
 Coeff:     -0.191D+00 0.119D+01
 Gap=     0.588 Goal=   None    Shift=    0.000
 RMSDP=2.40D-03 MaxDP=1.88D-02 DE=-6.74D-02 OVMax= 4.70D-02

 Cycle   3  Pass 1  IDiag  1:
 E= -82.6110625823697     Delta-E=       -0.008389975866 Rises=F Damp=F
 DIIS: error= 5.59D-03 at cycle   3 NSaved=   3.
 NSaved= 3 IEnMin= 3 EnMin= -82.6110625823697     IErMin= 3 ErrMin= 5.59D-03
 ErrMax= 5.59D-03  0.00D+00 EMaxC= 1.00D-01 BMatC= 3.12D-04 BMatP= 3.57D-03
 IDIUse=3 WtCom= 9.44D-01 WtEn= 5.59D-02
 Coeff-Com: -0.726D-01-0.170D-01 0.109D+01
 Coeff-En:   0.000D+00 0.000D+00 0.100D+01
 Coeff:     -0.685D-01-0.161D-01 0.108D+01
 Gap=     0.584 Goal=   None    Shift=    0.000
 RMSDP=8.12D-04 MaxDP=8.29D-03 DE=-8.39D-03 OVMax= 1.78D-02

 Cycle   4  Pass 1  IDiag  1:
 E= -82.6117791012764     Delta-E=       -0.000716518907 Rises=F Damp=F
 DIIS: error= 9.45D-04 at cycle   4 NSaved=   4.
 NSaved= 4 IEnMin= 4 EnMin= -82.6117791012764     IErMin= 4 ErrMin= 9.45D-04
 ErrMax= 9.45D-04  0.00D+00 EMaxC= 1.00D-01 BMatC= 2.41D-05 BMatP= 3.12D-04
 IDIUse=3 WtCom= 9.91D-01 WtEn= 9.45D-03
 Coeff-Com:  0.925D-02-0.799D-01 0.952D-01 0.975D+00
 Coeff-En:   0.000D+00 0.000D+00 0.000D+00 0.100D+01
 Coeff:      0.916D-02-0.791D-01 0.943D-01 0.976D+00
 Gap=     0.582 Goal=   None    Shift=    0.000
 RMSDP=1.77D-04 MaxDP=1.74D-03 DE=-7.17D-04 OVMax= 2.09D-03

 Cycle   5  Pass 1  IDiag  1:
 E= -82.6118150275581     Delta-E=       -0.000035926282 Rises=F Damp=F
 DIIS: error= 2.62D-04 at cycle   5 NSaved=   5.
 NSaved= 5 IEnMin= 5 EnMin= -82.6118150275581     IErMin= 5 ErrMin= 2.62D-04
 ErrMax= 2.62D-04  0.00D+00 EMaxC= 1.00D-01 BMatC= 1.77D-06 BMatP= 2.41D-05
 IDIUse=3 WtCom= 9.97D-01 WtEn= 2.62D-03
 Coeff-Com:  0.746D-02-0.730D-02-0.896D-01 0.139D+00 0.951D+00
 Coeff-En:   0.000D+00 0.000D+00 0.000D+00 0.000D+00 0.100D+01
 Coeff:      0.744D-02-0.728D-02-0.894D-01 0.138D+00 0.951D+00
 Gap=     0.582 Goal=   None    Shift=    0.000
 RMSDP=4.80D-05 MaxDP=8.00D-04 DE=-3.59D-05 OVMax= 8.11D-04

 Cycle   6  Pass 1  IDiag  1:
 E= -82.6118175463734     Delta-E=       -0.000002518815 Rises=F Damp=F
 DIIS: error= 3.14D-05 at cycle   6 NSaved=   6.
 NSaved= 6 IEnMin= 6 EnMin= -82.6118175463734     IErMin= 6 ErrMin= 3.14D-05
 ErrMax= 3.14D-05  0.00D+00 EMaxC= 1.00D-01 BMatC= 4.61D-08 BMatP= 1.77D-06
 IDIUse=1 WtCom= 1.00D+00 WtEn= 0.00D+00
 Coeff-Com: -0.961D-03 0.351D-02 0.257D-03-0.385D-01-0.341D-01 0.107D+01
 Coeff:     -0.961D-03 0.351D-02 0.257D-03-0.385D-01-0.341D-01 0.107D+01
 Gap=     0.582 Goal=   None    Shift=    0.000
 RMSDP=7.25D-06 MaxDP=1.16D-04 DE=-2.52D-06 OVMax= 1.08D-04

 Cycle   7  Pass 1  IDiag  1:
 E= -82.6118176310874     Delta-E=       -0.000000084714 Rises=F Damp=F
 DIIS: error= 8.84D-06 at cycle   7 NSaved=   7.
 NSaved= 7 IEnMin= 7 EnMin= -82.6118176310874     IErMin= 7 ErrMin= 8.84D-06
 ErrMax= 8.84D-06  0.00D+00 EMaxC= 1.00D-01 BMatC= 2.31D-09 BMatP= 4.61D-08
 IDIUse=1 WtCom= 1.00D+00 WtEn= 0.00D+00
 Coeff-Com: -0.288D-03 0.160D-03 0.494D-02-0.694D-02-0.562D-01-0.295D-01
 Coeff-Com:  0.109D+01
 Coeff:     -0.288D-03 0.160D-03 0.494D-02-0.694D-02-0.562D-01-0.295D-01
 Coeff:      0.109D+01
 Gap=     0.582 Goal=   None    Shift=    0.000
 RMSDP=1.96D-06 MaxDP=3.22D-05 DE=-8.47D-08 OVMax= 3.26D-05

 Cycle   8  Pass 1  IDiag  1:
 E= -82.6118176357224     Delta-E=       -0.000000004635 Rises=F Damp=F
 DIIS: error= 1.96D-06 at cycle   8 NSaved=   8.
 NSaved= 8 IEnMin= 8 EnMin= -82.6118176357224     IErMin= 8 ErrMin= 1.96D-06
 ErrMax= 1.96D-06  0.00D+00 EMaxC= 1.00D-01 BMatC= 4.99D-11 BMatP= 2.31D-09
 IDIUse=1 WtCom= 1.00D+00 WtEn= 0.00D+00
 Coeff-Com:  0.666D-04-0.969D-04-0.881D-03 0.213D-02 0.109D-01-0.796D-02
 Coeff-Com: -0.258D+00 0.125D+01
 Coeff:      0.666D-04-0.969D-04-0.881D-03 0.213D-02 0.109D-01-0.796D-02
 Coeff:     -0.258D+00 0.125D+01
 Gap=     0.582 Goal=   None    Shift=    0.000
 RMSDP=4.47D-07 MaxDP=5.33D-06 DE=-4.64D-09 OVMax= 6.41D-06

 Cycle   9  Pass 1  IDiag  1:
 E= -82.6118176358573     Delta-E=       -0.000000000135 Rises=F Damp=F
 DIIS: error= 4.18D-07 at cycle   9 NSaved=   9.
 NSaved= 9 IEnMin= 9 EnMin= -82.6118176358573     IErMin= 9 ErrMin= 4.18D-07
 ErrMax= 4.18D-07  0.00D+00 EMaxC= 1.00D-01 BMatC= 1.94D-12 BMatP= 4.99D-11
 IDIUse=1 WtCom= 1.00D+00 WtEn= 0.00D+00
 Coeff-Com: -0.523D-05 0.133D-06 0.101D-03-0.150D-03-0.146D-02-0.439D-03
 Coeff-Com:  0.443D-01-0.309D+00 0.127D+01
 Coeff:     -0.523D-05 0.133D-06 0.101D-03-0.150D-03-0.146D-02-0.439D-03
 Coeff:      0.443D-01-0.309D+00 0.127D+01
 Gap=     0.582 Goal=   None    Shift=    0.000
 RMSDP=1.04D-07 MaxDP=1.19D-06 DE=-1.35D-10 OVMax= 1.62D-06

 Cycle  10  Pass 1  IDiag  1:
 E= -82.6118176358634     Delta-E=       -0.000000000006 Rises=F Damp=F
 DIIS: error= 6.74D-08 at cycle  10 NSaved=  10.
 NSaved=10 IEnMin=10 EnMin= -82.6118176358634     IErMin=10 ErrMin= 6.74D-08
 ErrMax= 6.74D-08  0.00D+00 EMaxC= 1.00D-01 BMatC= 7.53D-14 BMatP= 1.94D-12
 IDIUse=1 WtCom= 1.00D+00 WtEn= 0.00D+00
 Coeff-Com: -0.806D-07 0.401D-06 0.481D-05-0.319D-04 0.766D-04 0.279D-03
 Coeff-Com: -0.406D-02 0.408D-01-0.338D+00 0.130D+01
 Coeff:     -0.806D-07 0.401D-06 0.481D-05-0.319D-04 0.766D-04 0.279D-03
 Coeff:     -0.406D-02 0.408D-01-0.338D+00 0.130D+01
 Gap=     0.582 Goal=   None    Shift=    0.000
 RMSDP=2.25D-08 MaxDP=2.66D-07 DE=-6.05D-12 OVMax= 3.57D-07

 Cycle  11  Pass 1  IDiag  1:
 E= -82.6118176358627     Delta-E=        0.000000000001 Rises=F Damp=F
 DIIS: error= 4.92D-09 at cycle  11 NSaved=  11.
 NSaved=11 IEnMin=10 EnMin= -82.6118176358634     IErMin=11 ErrMin= 4.92D-09
 ErrMax= 4.92D-09  0.00D+00 EMaxC= 1.00D-01 BMatC= 1.12D-15 BMatP= 7.53D-14
 IDIUse=1 WtCom= 1.00D+00 WtEn= 0.00D+00
 Coeff-Com:  0.394D-07-0.667D-07-0.145D-05 0.585D-05 0.730D-05-0.818D-04
 Coeff-Com:  0.323D-03-0.375D-02 0.515D-01-0.290D+00 0.124D+01
 Coeff:      0.394D-07-0.667D-07-0.145D-05 0.585D-05 0.730D-05-0.818D-04
 Coeff:      0.323D-03-0.375D-02 0.515D-01-0.290D+00 0.124D+01
 Gap=     0.582 Goal=   None    Shift=    0.000
 RMSDP=2.07D-09 MaxDP=2.16D-08 DE= 6.82D-13 OVMax= 3.00D-08

 SCF Done:  E(RHF) =  -82.6118176359     A.U. after   11 cycles
            NFock= 11  Conv=0.21D-08     -V/T= 2.0011
 KE= 8.251694745304D+01 PE=-2.728487680651D+02 EE= 6.726707847513D+01
 Leave Link  502 at Wed Mar 22 14:57:11 2017, MaxMem=   183500800 cpu:         0.0
 (Enter d:\study\G09W\l601.exe)
 Copying SCF densities to generalized density rwf, IOpCl= 0 IROHF=0.

 **********************************************************************

            Population analysis using the SCF density.

 **********************************************************************

 Alpha  occ. eigenvalues --  -15.64155  -7.52218  -1.24934  -0.72858  -0.72858
 Alpha  occ. eigenvalues --   -0.70280  -0.50491  -0.41044  -0.41044
 Alpha virt. eigenvalues --    0.17166   0.26109   0.26109   0.33519   0.36269
 Alpha virt. eigenvalues --    0.36269   0.40292   0.64989   0.64989   0.69956
 Alpha virt. eigenvalues --    0.87321   0.87321   0.88774   1.04695   1.14576
 Alpha virt. eigenvalues --    1.14576   1.17080   1.22733   1.22733   1.26755
 Alpha virt. eigenvalues --    1.56157   1.56157   1.70105   1.97428   2.06320
 Alpha virt. eigenvalues --    2.06320   2.19540   2.19540   2.69242   2.69242
 Alpha virt. eigenvalues --    2.70936   3.92538   4.18413
     Molecular Orbital Coefficients:
                           1         2         3         4         5
                           O         O         O         O         O
     Eigenvalues --   -15.64155  -7.52218  -1.24934  -0.72858  -0.72858
   1 1   N  1S          0.99491  -0.00010  -0.19941   0.00000   0.00000
   2        2S          0.02516   0.00048   0.42320   0.00000   0.00000
   3        2PX         0.00000   0.00000   0.00000  -0.25904   0.41426
   4        2PY         0.00000   0.00000   0.00000   0.41426   0.25904
   5        2PZ         0.00088  -0.00001   0.05454   0.00000   0.00000
   6        3S         -0.00172   0.00030   0.42663   0.00000   0.00000
   7        3PX         0.00000   0.00000   0.00000  -0.16208   0.25920
   8        3PY         0.00000   0.00000   0.00000   0.25920   0.16208
   9        3PZ        -0.00035  -0.00082   0.03538   0.00000   0.00000
  10        4XX        -0.00354   0.00013   0.01691   0.01223  -0.01956
  11        4YY        -0.00354   0.00013   0.01691  -0.01223   0.01956
  12        4ZZ        -0.00356  -0.00055   0.00471   0.00000   0.00000
  13        4XY         0.00000   0.00000   0.00000   0.02258   0.01412
  14        4XZ         0.00000   0.00000   0.00000  -0.01635   0.02615
  15        4YZ         0.00000   0.00000   0.00000   0.02615   0.01635
  16 2   H  1S          0.00027   0.00004   0.12986  -0.26579  -0.00937
  17        2S          0.00046   0.00086   0.00058  -0.11128  -0.00392
  18 3   H  1S          0.00027   0.00004   0.12986   0.14101  -0.22550
  19        2S          0.00046   0.00086   0.00058   0.05904  -0.09441
  20 4   H  1S          0.00027   0.00004   0.12986   0.12478   0.23486
  21        2S          0.00046   0.00086   0.00058   0.05224   0.09833
  22 5   B  1S         -0.00002   0.99633  -0.02700   0.00000   0.00000
  23        2S         -0.00004   0.02467   0.03212   0.00000   0.00000
  24        2PX         0.00000   0.00000   0.00000  -0.02423   0.03875
  25        2PY         0.00000   0.00000   0.00000   0.03875   0.02423
  26        2PZ         0.00028   0.00152   0.04147   0.00000   0.00000
  27        3S          0.00049  -0.01586   0.00548   0.00000   0.00000
  28        3PX         0.00000   0.00000   0.00000   0.00664  -0.01062
  29        3PY         0.00000   0.00000   0.00000  -0.01062  -0.00664
  30        3PZ         0.00009  -0.00091   0.00066   0.00000   0.00000
  31        4XX        -0.00003   0.00028  -0.00152  -0.00079   0.00127
  32        4YY        -0.00003   0.00028  -0.00152   0.00079  -0.00127
  33        4ZZ         0.00022  -0.00006   0.01743   0.00000   0.00000
  34        4XY         0.00000   0.00000   0.00000  -0.00146  -0.00091
  35        4XZ         0.00000   0.00000   0.00000  -0.00169   0.00271
  36        4YZ         0.00000   0.00000   0.00000   0.00271   0.00169
  37 6   H  1S          0.00000  -0.00012   0.00783  -0.01272   0.02033
  38        2S         -0.00013   0.00320   0.00421  -0.01432   0.02291
  39 7   H  1S          0.00000  -0.00012   0.00783   0.02397   0.00084
  40        2S         -0.00013   0.00320   0.00421   0.02700   0.00095
  41 8   H  1S          0.00000  -0.00012   0.00783  -0.01125  -0.02118
  42        2S         -0.00013   0.00320   0.00421  -0.01268  -0.02386
                           6         7         8         9        10
                           O         O         O         O         V
     Eigenvalues --    -0.70280  -0.50491  -0.41044  -0.41044   0.17166
   1 1   N  1S          0.00670   0.04722   0.00000   0.00000  -0.12575
   2        2S         -0.01545  -0.10727   0.00000   0.00000   0.12311
   3        2PX         0.00000   0.00000  -0.07254   0.01445   0.00000
   4        2PY         0.00000   0.00000  -0.01445  -0.07254   0.00000
   5        2PZ         0.35816   0.40484   0.00000   0.00000   0.12197
   6        3S         -0.03501  -0.22909   0.00000   0.00000   1.95722
   7        3PX         0.00000   0.00000  -0.04272   0.00851   0.00000
   8        3PY         0.00000   0.00000  -0.00851  -0.04272   0.00000
   9        3PZ         0.26354   0.34258   0.00000   0.00000   0.33530
  10        4XX         0.00507   0.00041   0.00579  -0.00115  -0.03723
  11        4YY         0.00507   0.00041  -0.00579   0.00115  -0.03723
  12        4ZZ        -0.00495   0.00585   0.00000   0.00000  -0.03527
  13        4XY         0.00000   0.00000  -0.00133  -0.00669   0.00000
  14        4XZ         0.00000   0.00000  -0.01451   0.00289   0.00000
  15        4YZ         0.00000   0.00000  -0.00289  -0.01451   0.00000
  16 2   H  1S          0.06277   0.04674  -0.01876   0.05533  -0.03328
  17        2S          0.01941   0.03887  -0.01784   0.05261  -0.90141
  18 3   H  1S          0.06278   0.04674   0.05730  -0.01142  -0.03328
  19        2S          0.01941   0.03887   0.05448  -0.01085  -0.90141
  20 4   H  1S          0.06277   0.04674  -0.03853  -0.04391  -0.03328
  21        2S          0.01941   0.03887  -0.03664  -0.04176  -0.90141
  22 5   B  1S          0.15895  -0.08347   0.00000   0.00000  -0.01386
  23        2S         -0.22859   0.13225   0.00000   0.00000   0.01337
  24        2PX         0.00000   0.00000   0.36102  -0.07193   0.00000
  25        2PY         0.00000   0.00000   0.07193   0.36102   0.00000
  26        2PZ        -0.03878  -0.21571   0.00000   0.00000  -0.09792
  27        3S         -0.12070   0.18606   0.00000   0.00000   0.27315
  28        3PX         0.00000   0.00000   0.15620  -0.03112   0.00000
  29        3PY         0.00000   0.00000   0.03112   0.15620   0.00000
  30        3PZ         0.00386  -0.02148   0.00000   0.00000  -0.27898
  31        4XX        -0.01641   0.03059   0.03189  -0.00635   0.00030
  32        4YY        -0.01641   0.03059  -0.03189   0.00635   0.00030
  33        4ZZ        -0.01659  -0.03397   0.00000   0.00000  -0.00689
  34        4XY         0.00000   0.00000  -0.00734  -0.03683   0.00000
  35        4XZ         0.00000   0.00000  -0.01244   0.00248   0.00000
  36        4YZ         0.00000   0.00000  -0.00248  -0.01244   0.00000
  37 6   H  1S         -0.11019   0.12612   0.26099  -0.05200   0.01587
  38        2S         -0.09380   0.13419   0.32238  -0.06423  -0.13623
  39 7   H  1S         -0.11019   0.12612  -0.08546   0.25202   0.01587
  40        2S         -0.09380   0.13419  -0.10557   0.31131  -0.13623
  41 8   H  1S         -0.11019   0.12612  -0.17552  -0.20002   0.01587
  42        2S         -0.09380   0.13419  -0.21682  -0.24708  -0.13623
                          11        12        13        14        15
                           V         V         V         V         V
     Eigenvalues --     0.26109   0.26109   0.33519   0.36269   0.36269
   1 1   N  1S          0.00000   0.00000   0.01347   0.00000   0.00000
   2        2S          0.00000   0.00000  -0.03186   0.00000   0.00000
   3        2PX         0.30154  -0.12478   0.00000   0.01879   0.01077
   4        2PY         0.12478   0.30154   0.00000   0.01077  -0.01879
   5        2PZ         0.00000   0.00000   0.25989   0.00000   0.00000
   6        3S          0.00000   0.00000  -0.04368   0.00000   0.00000
   7        3PX         1.05774  -0.43772   0.00000  -0.10142  -0.05813
   8        3PY         0.43772   1.05774   0.00000  -0.05813   0.10142
   9        3PZ         0.00000   0.00000   0.86104   0.00000   0.00000
  10        4XX         0.00503  -0.00208  -0.00600  -0.00064  -0.00037
  11        4YY        -0.00503   0.00208  -0.00600   0.00064   0.00037
  12        4ZZ         0.00000   0.00000   0.01639   0.00000   0.00000
  13        4XY        -0.00240  -0.00581   0.00000   0.00043  -0.00074
  14        4XZ         0.00540  -0.00223   0.00000  -0.02646  -0.01517
  15        4YZ         0.00223   0.00540   0.00000  -0.01517   0.02646
  16 2   H  1S         -0.00998   0.07563  -0.02532  -0.00016  -0.04930
  17        2S         -0.22756   1.72408  -0.51650  -0.00082  -0.25692
  18 3   H  1S          0.07049  -0.02917  -0.02532   0.04277   0.02451
  19        2S          1.60687  -0.66497  -0.51650   0.22291   0.12775
  20 4   H  1S         -0.06050  -0.04646  -0.02532  -0.04262   0.02479
  21        2S         -1.37931  -1.05911  -0.51650  -0.22209   0.12917
  22 5   B  1S          0.00000   0.00000  -0.02090   0.00000   0.00000
  23        2S          0.00000   0.00000  -0.00328   0.00000   0.00000
  24        2PX         0.03047  -0.01261   0.00000   0.18530   0.10620
  25        2PY         0.01261   0.03047   0.00000   0.10620  -0.18530
  26        2PZ         0.00000   0.00000   0.22806   0.00000   0.00000
  27        3S          0.00000   0.00000   0.00080   0.00000   0.00000
  28        3PX        -0.24567   0.10166   0.00000   1.78441   1.02265
  29        3PY        -0.10166  -0.24567   0.00000   1.02265  -1.78441
  30        3PZ         0.00000   0.00000   1.53551   0.00000   0.00000
  31        4XX         0.00436  -0.00181   0.01139  -0.01186  -0.00680
  32        4YY        -0.00436   0.00181   0.01139   0.01186   0.00680
  33        4ZZ         0.00000   0.00000   0.00295   0.00000   0.00000
  34        4XY        -0.00208  -0.00504   0.00000   0.00785  -0.01370
  35        4XZ         0.00214  -0.00089   0.00000   0.00844   0.00484
  36        4YZ         0.00089   0.00214   0.00000   0.00484  -0.00844
  37 6   H  1S          0.00442  -0.00183   0.04013  -0.06158  -0.03529
  38        2S          0.12534  -0.05187   0.40605  -1.72675  -0.98961
  39 7   H  1S         -0.00063   0.00474   0.04013   0.00023   0.07098
  40        2S         -0.01775   0.13448   0.40604   0.00635   1.99022
  41 8   H  1S         -0.00379  -0.00291   0.04013   0.06135  -0.03568
  42        2S         -0.10759  -0.08261   0.40604   1.72040  -1.00061
                          16        17        18        19        20
                           V         V         V         V         V
     Eigenvalues --     0.40292   0.64989   0.64989   0.69956   0.87321
   1 1   N  1S          0.04421   0.00000   0.00000   0.01041   0.00000
   2        2S         -0.05675   0.00000   0.00000  -0.18974   0.00000
   3        2PX         0.00000  -0.00276   0.04252   0.00000   0.14319
   4        2PY         0.00000   0.04252   0.00276   0.00000  -0.34989
   5        2PZ         0.08208   0.00000   0.00000   0.06042   0.00000
   6        3S         -0.65483   0.00000   0.00000   0.53947   0.00000
   7        3PX         0.00000  -0.00236   0.03640   0.00000  -0.47365
   8        3PY         0.00000   0.03640   0.00236   0.00000   1.15739
   9        3PZ         0.61176   0.00000   0.00000   0.28637   0.00000
  10        4XX        -0.00176  -0.00131   0.02028  -0.08691  -0.05407
  11        4YY        -0.00176   0.00131  -0.02028  -0.08691   0.05407
  12        4ZZ         0.03576   0.00000   0.00000   0.12189   0.00000
  13        4XY         0.00000  -0.02341  -0.00152   0.00000  -0.15256
  14        4XZ         0.00000   0.00066  -0.01024   0.00000   0.03413
  15        4YZ         0.00000  -0.01024  -0.00066   0.00000  -0.08339
  16 2   H  1S         -0.00972   0.10275  -0.05076  -0.13146   0.72537
  17        2S         -0.06320   0.19173  -0.09472   0.07514  -0.17983
  18 3   H  1S         -0.00972  -0.00741   0.11437  -0.13146  -0.27726
  19        2S         -0.06320  -0.01383   0.21341   0.07514   0.06874
  20 4   H  1S         -0.00972  -0.09534  -0.06360  -0.13146  -0.44811
  21        2S         -0.06320  -0.17790  -0.11868   0.07514   0.11109
  22 5   B  1S         -0.19024   0.00000   0.00000  -0.01178   0.00000
  23        2S          0.19372   0.00000   0.00000   0.20187   0.00000
  24        2PX         0.00000   0.06541  -1.00901   0.00000  -0.08369
  25        2PY         0.00000  -1.00901  -0.06541   0.00000   0.20451
  26        2PZ         0.00896   0.00000   0.00000   1.15355   0.00000
  27        3S          3.34179   0.00000   0.00000  -0.24213   0.00000
  28        3PX         0.00000  -0.07696   1.18719   0.00000   0.37951
  29        3PY         0.00000   1.18719   0.07696   0.00000  -0.92736
  30        3PZ         0.16872   0.00000   0.00000  -1.07725   0.00000
  31        4XX         0.04733   0.00359  -0.05543  -0.00290  -0.01129
  32        4YY         0.04733  -0.00359   0.05543  -0.00290   0.01129
  33        4ZZ         0.04655   0.00000   0.00000   0.03115   0.00000
  34        4XY         0.00000   0.06401   0.00415   0.00000  -0.03185
  35        4XZ         0.00000  -0.00154   0.02380   0.00000  -0.05371
  36        4YZ         0.00000   0.02380   0.00154   0.00000   0.13124
  37 6   H  1S          0.03357   0.01872  -0.28874  -0.09107   0.04507
  38        2S         -1.42576  -0.00737   0.11374   0.07333  -0.22475
  39 7   H  1S          0.03357  -0.25942   0.12816  -0.09107  -0.11792
  40        2S         -1.42577   0.10219  -0.05049   0.07333   0.58798
  41 8   H  1S          0.03357   0.24070   0.16058  -0.09107   0.07285
  42        2S         -1.42577  -0.09482  -0.06326   0.07333  -0.36324
                          21        22        23        24        25
                           V         V         V         V         V
     Eigenvalues --     0.87321   0.88774   1.04695   1.14576   1.14576
   1 1   N  1S          0.00000   0.02433  -0.02976   0.00000   0.00000
   2        2S          0.00000  -0.16411   0.27860   0.00000  -0.00001
   3        2PX        -0.34989   0.00000   0.00000  -0.92548   0.38580
   4        2PY        -0.14319   0.00000   0.00000  -0.38580  -0.92548
   5        2PZ         0.00000   0.60647  -0.35177   0.00000  -0.00001
   6        3S          0.00000  -0.26038  -0.60045  -0.00001   0.00002
   7        3PX         1.15739   0.00000   0.00000   1.24169  -0.51761
   8        3PY         0.47365   0.00000   0.00000   0.51761   1.24169
   9        3PZ         0.00000  -0.58643   1.64461  -0.00001   0.00002
  10        4XX         0.13212   0.01274   0.00159  -0.10251   0.04273
  11        4YY        -0.13212   0.01274   0.00159   0.10251  -0.04273
  12        4ZZ         0.00000  -0.10618   0.11731   0.00000   0.00000
  13        4XY        -0.06244   0.00000   0.00000   0.04934   0.11837
  14        4XZ        -0.08339   0.00000   0.00000   0.07923  -0.03303
  15        4YZ        -0.03413   0.00000   0.00000   0.03303   0.07923
  16 2   H  1S         -0.09864   0.16425  -0.45394   0.07104  -0.54922
  17        2S          0.02445  -0.09480  -0.28370  -0.17785   1.37489
  18 3   H  1S          0.67751   0.16425  -0.45394  -0.51116   0.21309
  19        2S         -0.16796  -0.09480  -0.28370   1.27963  -0.53343
  20 4   H  1S         -0.57887   0.16425  -0.45394   0.44012   0.33614
  21        2S          0.14351  -0.09480  -0.28370  -1.10177  -0.84148
  22 5   B  1S          0.00000  -0.12287  -0.07934   0.00000   0.00000
  23        2S          0.00000  -1.37042  -1.30273   0.00000  -0.00001
  24        2PX         0.20451   0.00000   0.00000  -0.00504   0.00210
  25        2PY         0.08369   0.00000   0.00000  -0.00210  -0.00504
  26        2PZ         0.00000   0.04746  -0.25069   0.00000   0.00000
  27        3S          0.00000   3.49644   3.95329  -0.00001   0.00003
  28        3PX        -0.92736   0.00000   0.00000  -0.05159   0.02151
  29        3PY        -0.37951   0.00000   0.00000  -0.02151  -0.05159
  30        3PZ         0.00000  -0.24230   0.98023   0.00000   0.00001
  31        4XX         0.02758  -0.04210  -0.11284  -0.03767   0.01570
  32        4YY        -0.02758  -0.04210  -0.11284   0.03767  -0.01570
  33        4ZZ         0.00000  -0.21076   0.20088   0.00000   0.00000
  34        4XY        -0.01303   0.00000   0.00000   0.01813   0.04350
  35        4XZ         0.13124   0.00000   0.00000  -0.00560   0.00233
  36        4YZ         0.05371   0.00000   0.00000  -0.00233  -0.00560
  37 6   H  1S         -0.11014  -0.21285  -0.24637  -0.11992   0.04999
  38        2S          0.54919  -0.82924  -0.59936   0.11132  -0.04641
  39 7   H  1S          0.01604  -0.21285  -0.24637   0.01667  -0.12885
  40        2S         -0.07996  -0.82925  -0.59936  -0.01547   0.11960
  41 8   H  1S          0.09410  -0.21285  -0.24637   0.10325   0.07886
  42        2S         -0.46923  -0.82925  -0.59936  -0.09584  -0.07320
                          26        27        28        29        30
                           V         V         V         V         V
     Eigenvalues --     1.17080   1.22733   1.22733   1.26755   1.56157
   1 1   N  1S          0.00954   0.00000   0.00000  -0.00677   0.00000
   2        2S         -1.00740   0.00000   0.00000   0.52068   0.00000
   3        2PX        -0.00001  -0.10489  -0.16766   0.00000  -0.02760
   4        2PY         0.00001   0.16766  -0.10489   0.00000   0.06668
   5        2PZ        -0.69894   0.00000   0.00000  -0.03812   0.00000
   6        3S          2.03964   0.00000   0.00000  -1.29321  -0.00001
   7        3PX         0.00001   0.26208   0.41891   0.00000   0.19433
   8        3PY        -0.00001  -0.41891   0.26208   0.00000  -0.46955
   9        3PZ         1.35156   0.00000   0.00000   0.16121   0.00000
  10        4XX        -0.13058   0.03209   0.05129   0.09057   0.10238
  11        4YY        -0.13058  -0.03209  -0.05129   0.09057  -0.10238
  12        4ZZ        -0.24837   0.00000   0.00000   0.04437   0.00000
  13        4XY         0.00000   0.05922  -0.03705   0.00000   0.28563
  14        4XZ         0.00000   0.04068   0.06502   0.00000   0.15209
  15        4YZ         0.00000  -0.06502   0.04068   0.00000  -0.36749
  16 2   H  1S          0.34735  -0.08101   0.00287  -0.13722  -0.19118
  17        2S         -0.98157  -0.37569   0.01332   0.23232  -0.13651
  18 3   H  1S          0.34734   0.04299   0.06872  -0.13722   0.07375
  19        2S         -0.98155   0.19938   0.31870   0.23232   0.05266
  20 4   H  1S          0.34734   0.03802  -0.07160  -0.13722   0.11744
  21        2S         -0.98156   0.17631  -0.33202   0.23232   0.08386
  22 5   B  1S         -0.02868   0.00000   0.00000   0.03597   0.00000
  23        2S         -0.90121   0.00000   0.00000  -1.37351   0.00000
  24        2PX         0.00000  -0.37441  -0.59846   0.00000   0.04485
  25        2PY         0.00000   0.59846  -0.37441   0.00000  -0.10837
  26        2PZ         0.07346   0.00000   0.00000   0.34674   0.00000
  27        3S          2.57112   0.00000   0.00001   3.59988   0.00001
  28        3PX         0.00000   0.66216   1.05840   0.00000  -0.08420
  29        3PY         0.00000  -1.05840   0.66216   0.00000   0.20344
  30        3PZ         0.35515   0.00000   0.00000  -0.34363   0.00000
  31        4XX        -0.00870   0.17567   0.28079   0.09082  -0.11002
  32        4YY        -0.00869  -0.17567  -0.28079   0.09082   0.11002
  33        4ZZ        -0.02868   0.00000   0.00000  -0.22040   0.00000
  34        4XY         0.00000   0.32422  -0.20284   0.00000  -0.30696
  35        4XZ         0.00000  -0.08936  -0.14284   0.00000  -0.28655
  36        4YZ         0.00000   0.14284  -0.08936   0.00000   0.69236
  37 6   H  1S          0.06948   0.42404   0.67780   0.60160  -0.03857
  38        2S         -0.54834  -0.85487  -1.36645  -1.37113   0.05622
  39 7   H  1S          0.06948  -0.79901   0.02833   0.60161   0.09999
  40        2S         -0.54834   1.61081  -0.05712  -1.37113  -0.14576
  41 8   H  1S          0.06948   0.37497  -0.70613   0.60161  -0.06142
  42        2S         -0.54834  -0.75594   1.42356  -1.37113   0.08953
                          31        32        33        34        35
                           V         V         V         V         V
     Eigenvalues --     1.56157   1.70105   1.97428   2.06320   2.06320
   1 1   N  1S          0.00000  -0.13815   0.08390   0.00000   0.00000
   2        2S          0.00000  -1.55455   0.14464   0.00000   0.00000
   3        2PX         0.06668   0.00000   0.00000  -0.10139   0.01616
   4        2PY         0.02760   0.00000   0.00000  -0.01616  -0.10139
   5        2PZ         0.00000   0.40043   0.22152   0.00000   0.00000
   6        3S          0.00000   4.64592  -1.47881   0.00000   0.00000
   7        3PX        -0.46955   0.00000   0.00000   0.60318  -0.09616
   8        3PY        -0.19433   0.00000   0.00000   0.09616   0.60318
   9        3PZ         0.00000  -0.95013   0.02422   0.00000   0.00000
  10        4XX        -0.24736  -0.26106  -0.12560  -0.37120   0.05918
  11        4YY         0.24736  -0.26106  -0.12560   0.37120  -0.05918
  12        4ZZ         0.00000  -0.26888   0.46739   0.00000   0.00000
  13        4XY         0.11822   0.00000   0.00000   0.06833   0.42862
  14        4XZ        -0.36749   0.00000   0.00000  -0.58684   0.09355
  15        4YZ        -0.15209   0.00000   0.00000  -0.09356  -0.58684
  16 2   H  1S          0.02523  -0.57888   0.32625  -0.07086   0.18515
  17        2S          0.01801  -0.22536   0.02177  -0.04623   0.12080
  18 3   H  1S         -0.17819  -0.57888   0.32625   0.19578  -0.03121
  19        2S         -0.12723  -0.22536   0.02177   0.12774  -0.02036
  20 4   H  1S          0.15296  -0.57888   0.32625  -0.12492  -0.15394
  21        2S          0.10922  -0.22536   0.02177  -0.08150  -0.10044
  22 5   B  1S          0.00000   0.09160   0.00682   0.00000   0.00000
  23        2S          0.00000   0.42207  -0.70655   0.00000   0.00000
  24        2PX        -0.10837   0.00000   0.00000  -0.21063   0.03358
  25        2PY        -0.04485   0.00000   0.00000  -0.03358  -0.21063
  26        2PZ         0.00000  -0.41082  -0.02575   0.00000   0.00000
  27        3S          0.00000  -2.85959   1.49069   0.00000   0.00000
  28        3PX         0.20344   0.00000   0.00000  -0.52052   0.08298
  29        3PY         0.08420   0.00000   0.00000  -0.08298  -0.52052
  30        3PZ         0.00000  -0.80252   0.51211   0.00000   0.00000
  31        4XX         0.26583  -0.02345  -0.42943  -0.58956   0.09399
  32        4YY        -0.26583  -0.02345  -0.42943   0.58956  -0.09399
  33        4ZZ         0.00000  -0.06157   0.92257   0.00000   0.00000
  34        4XY        -0.12704   0.00000   0.00000   0.10853   0.68076
  35        4XZ         0.69236   0.00000   0.00000  -0.30202   0.04815
  36        4YZ         0.28655   0.00000   0.00000  -0.04815  -0.30202
  37 6   H  1S          0.09319   0.23744   0.32885   0.51682  -0.08239
  38        2S         -0.13584   0.37662  -0.39514   0.05820  -0.00928
  39 7   H  1S         -0.01319   0.23744   0.32885  -0.18705   0.48877
  40        2S          0.01923   0.37662  -0.39514  -0.02107   0.05504
  41 8   H  1S         -0.08000   0.23744   0.32885  -0.32976  -0.40638
  42        2S          0.11661   0.37662  -0.39514  -0.03714  -0.04576
                          36        37        38        39        40
                           V         V         V         V         V
     Eigenvalues --     2.19540   2.19540   2.69242   2.69242   2.70936
   1 1   N  1S          0.00000   0.00000   0.00000   0.00000   0.04605
   2        2S          0.00000   0.00000   0.00000   0.00000   0.27576
   3        2PX         0.02014  -0.00050   0.07561  -0.03128   0.00000
   4        2PY         0.00050   0.02014   0.03128   0.07561   0.00000
   5        2PZ         0.00000   0.00000   0.00000   0.00000   0.00837
   6        3S          0.00000   0.00000   0.00001  -0.00001  -1.07574
   7        3PX        -0.14677   0.00361   0.72941  -0.30177   0.00001
   8        3PY        -0.00361  -0.14677   0.30177   0.72941  -0.00001
   9        3PZ         0.00000   0.00000   0.00000   0.00001   1.22505
  10        4XX         0.20204  -0.00497  -0.78786   0.32596   0.61382
  11        4YY        -0.20204   0.00497   0.78786  -0.32595   0.61383
  12        4ZZ         0.00000   0.00000   0.00000  -0.00001  -1.03740
  13        4XY        -0.00574  -0.23329   0.37638   0.90974  -0.00001
  14        4XZ         0.42988  -0.01057   0.65043  -0.26909   0.00001
  15        4YZ         0.01057   0.42988   0.26909   0.65043  -0.00001
  16 2   H  1S          0.00677  -0.01241  -0.13065   0.98917  -0.20275
  17        2S          0.03224  -0.05915   0.00403  -0.03051  -0.11215
  18 3   H  1S         -0.01413   0.00035   0.92197  -0.38144  -0.20273
  19        2S         -0.06735   0.00166  -0.02844   0.01177  -0.11215
  20 4   H  1S          0.00737   0.01207  -0.79132  -0.60774  -0.20274
  21        2S          0.03511   0.05750   0.02441   0.01875  -0.11215
  22 5   B  1S          0.00000   0.00000   0.00000   0.00000  -0.07941
  23        2S          0.00000   0.00000   0.00000   0.00000   0.18905
  24        2PX        -0.22961   0.00565   0.03803  -0.01573   0.00000
  25        2PY        -0.00565  -0.22961   0.01573   0.03803   0.00000
  26        2PZ         0.00000   0.00000   0.00000   0.00001   0.59927
  27        3S          0.00000   0.00000  -0.00001   0.00002   1.59386
  28        3PX        -0.04506   0.00111  -0.21586   0.08930   0.00000
  29        3PY        -0.00111  -0.04506  -0.08930  -0.21586   0.00000
  30        3PZ         0.00000   0.00000   0.00000   0.00001   0.57276
  31        4XX        -0.65337   0.01606   0.05401  -0.02235  -0.49923
  32        4YY         0.65337  -0.01606  -0.05400   0.02234  -0.49923
  33        4ZZ         0.00000   0.00000   0.00000   0.00001   0.77309
  34        4XY         0.01855   0.75445  -0.02580  -0.06236   0.00000
  35        4XZ         0.67840  -0.01668  -0.00657   0.00272   0.00000
  36        4YZ         0.01668   0.67840  -0.00272  -0.00657   0.00000
  37 6   H  1S          0.73233  -0.01800  -0.04427   0.01832   0.12670
  38        2S         -0.26472   0.00651   0.11176  -0.04624  -0.27816
  39 7   H  1S         -0.35057   0.64322   0.00627  -0.04750   0.12670
  40        2S          0.12673  -0.23251  -0.01584   0.11990  -0.27817
  41 8   H  1S         -0.38176  -0.62521   0.03800   0.02918   0.12670
  42        2S          0.13800   0.22600  -0.09592  -0.07367  -0.27816
                          41        42
                           V         V
     Eigenvalues --     3.92538   4.18413
   1 1   N  1S         -0.14600  -0.47384
   2        2S          0.24450   1.00095
   3        2PX         0.00000   0.00000
   4        2PY         0.00000   0.00000
   5        2PZ        -0.05504   0.04729
   6        3S          0.98775   3.72371
   7        3PX         0.00000   0.00000
   8        3PY         0.00000   0.00000
   9        3PZ        -0.03038  -0.12483
  10        4XX        -0.53450  -1.52421
  11        4YY        -0.53450  -1.52421
  12        4ZZ        -0.19508  -1.56513
  13        4XY         0.00000   0.00000
  14        4XZ         0.00000   0.00000
  15        4YZ         0.00000   0.00000
  16 2   H  1S          0.05901   0.11235
  17        2S         -0.19906  -0.47579
  18 3   H  1S          0.05901   0.11235
  19        2S         -0.19906  -0.47579
  20 4   H  1S          0.05901   0.11235
  21        2S         -0.19906  -0.47579
  22 5   B  1S         -0.46679   0.14339
  23        2S          3.89291  -1.12922
  24        2PX         0.00000   0.00000
  25        2PY         0.00000   0.00000
  26        2PZ        -0.09236  -0.03067
  27        3S          1.20595  -1.35469
  28        3PX         0.00000   0.00000
  29        3PY         0.00000   0.00000
  30        3PZ        -0.07936  -0.24946
  31        4XX        -2.04498   0.58135
  32        4YY        -2.04498   0.58135
  33        4ZZ        -2.05005   0.76581
  34        4XY         0.00000   0.00000
  35        4XZ         0.00000   0.00000
  36        4YZ         0.00000   0.00000
  37 6   H  1S          0.18367  -0.00942
  38        2S         -0.39862   0.28165
  39 7   H  1S          0.18367  -0.00942
  40        2S         -0.39862   0.28165
  41 8   H  1S          0.18367  -0.00942
  42        2S         -0.39862   0.28165
     Density Matrix:
                           1         2         3         4         5
   1 1   N  1S          2.06378
   2        2S         -0.12905   0.38296
   3        2PX         0.00000   0.00000   0.48837
   4        2PY         0.00000   0.00000   0.00000   0.48837
   5        2PZ         0.02303  -0.05171   0.00000   0.00000   0.59030
   6        3S         -0.19567   0.41125   0.00000   0.00000  -0.16403
   7        3PX         0.00000   0.00000   0.30517   0.00000   0.00000
   8        3PY         0.00000   0.00000   0.00000   0.30517   0.00000
   9        3PZ         0.02107  -0.05171   0.00000   0.00000   0.47002
  10        4XX        -0.01369   0.01389  -0.02341   0.00000   0.00580
  11        4YY        -0.01369   0.01389   0.02341   0.00000   0.00580
  12        4ZZ        -0.00848   0.00270   0.00000   0.00000   0.00170
  13        4XY         0.00000   0.00000   0.00000   0.02704   0.00000
  14        4XZ         0.00000   0.00000   0.03232   0.00000   0.00000
  15        4YZ         0.00000   0.00000   0.00000   0.03232   0.00000
  16 2   H  1S         -0.04599   0.09796   0.13426  -0.23255   0.09698
  17        2S          0.00461  -0.00842   0.05851  -0.10135   0.04544
  18 3   H  1S         -0.04599   0.09796  -0.26852   0.00000   0.09698
  19        2S          0.00461  -0.00842  -0.11702   0.00000   0.04544
  20 4   H  1S         -0.04599   0.09796   0.13426   0.23255   0.09698
  21        2S          0.00461  -0.00842   0.05851   0.10135   0.04544
  22 5   B  1S          0.00477  -0.00890   0.00000   0.00000   0.04332
  23        2S         -0.00347   0.00589   0.00000   0.00000  -0.05317
  24        2PX         0.00000   0.00000  -0.00980   0.00000   0.00000
  25        2PY         0.00000   0.00000   0.00000  -0.00980   0.00000
  26        2PZ        -0.03687   0.08260   0.00000   0.00000  -0.19791
  27        3S          0.01474  -0.03154   0.00000   0.00000   0.06479
  28        3PX         0.00000   0.00000  -0.03580   0.00000   0.00000
  29        3PY         0.00000   0.00000   0.00000  -0.03580   0.00000
  30        3PZ        -0.00206   0.00505   0.00000   0.00000  -0.01456
  31        4XX         0.00321  -0.00734  -0.00335   0.00000   0.01285
  32        4YY         0.00321  -0.00734   0.00335   0.00000   0.01285
  33        4ZZ        -0.00995   0.02256   0.00000   0.00000  -0.03748
  34        4XY         0.00000   0.00000   0.00000   0.00387   0.00000
  35        4XZ         0.00000   0.00000   0.00500   0.00000   0.00000
  36        4YZ         0.00000   0.00000   0.00000   0.00500   0.00000
  37 6   H  1S          0.00730  -0.01703  -0.01593   0.00000   0.02404
  38        2S          0.00947  -0.02233  -0.02222   0.00000   0.04192
  39 7   H  1S          0.00730  -0.01703   0.00796  -0.01379   0.02404
  40        2S          0.00947  -0.02233   0.01111  -0.01925   0.04192
[...]
  34        4XY         0.00000   0.00000   0.00000   0.00000   0.00000
  35        4XZ         0.00000   0.00000   0.00035   0.00000   0.00000
  36        4YZ         0.00000   0.00000   0.00000   0.00035   0.00000
  37 6   H  1S          0.00000  -0.00002  -0.00002   0.00000  -0.00006
  38        2S          0.00007  -0.00126  -0.00063   0.00000  -0.00202
  39 7   H  1S          0.00000  -0.00002  -0.00001  -0.00002  -0.00006
  40        2S          0.00007  -0.00126  -0.00016  -0.00047  -0.00202
  41 8   H  1S          0.00000  -0.00002  -0.00001  -0.00002  -0.00006
  42        2S          0.00007  -0.00126  -0.00016  -0.00047  -0.00202
                           6         7         8         9        10
   6        3S          0.47145
   7        3PX         0.00000   0.19071
   8        3PY         0.00000   0.00000   0.19071
   9        3PZ         0.00000   0.00000   0.00000   0.37613
  10        4XX         0.00932   0.00000   0.00000   0.00000   0.00178
  11        4YY         0.00932   0.00000   0.00000   0.00000  -0.00016
  12        4ZZ         0.00113   0.00000   0.00000   0.00000   0.00005
  13        4XY         0.00000   0.00000   0.00000   0.00000   0.00000
  14        4XZ         0.00000   0.00000   0.00000   0.00000   0.00000
  15        4YZ         0.00000   0.00000   0.00000   0.00000   0.00000
  16 2   H  1S          0.03504   0.02173   0.06519   0.01471  -0.00033
  17        2S         -0.01324   0.00912   0.02735   0.00705  -0.00106
  18 3   H  1S          0.03504   0.08693   0.00000   0.01471   0.00855
  19        2S         -0.01324   0.03646   0.00000   0.00705   0.00271
  20 4   H  1S          0.03504   0.02173   0.06519   0.01471  -0.00033
  21        2S         -0.01324   0.00912   0.02735   0.00705  -0.00106
  22 5   B  1S          0.00017   0.00000   0.00000  -0.00237   0.00000
  23        2S         -0.00446   0.00000   0.00000   0.01292  -0.00007
  24        2PX         0.00000  -0.00082   0.00000   0.00000   0.00000
  25        2PY         0.00000   0.00000  -0.00082   0.00000   0.00000
  26        2PZ         0.03987   0.00000   0.00000   0.05969   0.00010
  27        3S         -0.03066   0.00000   0.00000  -0.03001  -0.00017
  28        3PX         0.00000  -0.00886   0.00000   0.00000   0.00000
  29        3PY         0.00000   0.00000  -0.00886   0.00000   0.00000
  30        3PZ         0.00612   0.00000   0.00000   0.00319   0.00002
  31        4XX        -0.00202   0.00000   0.00000  -0.00378   0.00000
  32        4YY        -0.00202   0.00000   0.00000  -0.00378  -0.00001
  33        4ZZ         0.00960   0.00000   0.00000   0.01354   0.00004
  34        4XY         0.00000   0.00000   0.00000   0.00000   0.00000
  35        4XZ         0.00000   0.00058   0.00000   0.00000   0.00000
  36        4YZ         0.00000   0.00000   0.00058   0.00000   0.00000
  37 6   H  1S         -0.00147  -0.00045   0.00000  -0.00258   0.00000
  38        2S         -0.00888  -0.00185   0.00000  -0.01107   0.00012
  39 7   H  1S         -0.00147  -0.00011  -0.00034  -0.00258   0.00000
  40        2S         -0.00888  -0.00046  -0.00138  -0.01107  -0.00010
  41 8   H  1S         -0.00147  -0.00011  -0.00034  -0.00258   0.00000
  42        2S         -0.00888  -0.00046  -0.00138  -0.01107  -0.00010
                          11        12        13        14        15
  11        4YY         0.00178
  12        4ZZ         0.00005   0.00019
  13        4XY         0.00000   0.00000   0.00151
  14        4XZ         0.00000   0.00000   0.00000   0.00234
  15        4YZ         0.00000   0.00000   0.00000   0.00000   0.00234
  16 2   H  1S          0.00454   0.00022   0.00317   0.00098   0.00293
  17        2S          0.00136   0.00010   0.00028   0.00009   0.00028
  18 3   H  1S         -0.00117   0.00022   0.00000   0.00391   0.00000
  19        2S         -0.00212   0.00010   0.00000   0.00037   0.00000
  20 4   H  1S          0.00454   0.00022   0.00317   0.00098   0.00293
  21        2S          0.00136   0.00010   0.00028   0.00009   0.00028
  22 5   B  1S          0.00000  -0.00004   0.00000   0.00000   0.00000
  23        2S         -0.00007   0.00083   0.00000   0.00000   0.00000
  24        2PX         0.00000   0.00000   0.00000   0.00077   0.00000
  25        2PY         0.00000   0.00000   0.00000   0.00000   0.00077
  26        2PZ         0.00010  -0.00053   0.00000   0.00000   0.00000
  27        3S         -0.00017   0.00087   0.00000   0.00000   0.00000
  28        3PX         0.00000   0.00000   0.00000   0.00055   0.00000
  29        3PY         0.00000   0.00000   0.00000   0.00000   0.00055
  30        3PZ         0.00002  -0.00011   0.00000   0.00000   0.00000
  31        4XX        -0.00001   0.00003   0.00000   0.00000   0.00000
  32        4YY         0.00000   0.00003   0.00000   0.00000   0.00000
  33        4ZZ         0.00004  -0.00003   0.00000   0.00000   0.00000
  34        4XY         0.00000   0.00000   0.00001   0.00000   0.00000
  35        4XZ         0.00000   0.00000   0.00000  -0.00010   0.00000
  36        4YZ         0.00000   0.00000   0.00000   0.00000  -0.00010
  37 6   H  1S          0.00000   0.00001   0.00000   0.00003   0.00000
  38        2S         -0.00016   0.00022   0.00000   0.00030   0.00000
  39 7   H  1S          0.00000   0.00001   0.00000   0.00001   0.00002
  40        2S          0.00004   0.00022   0.00003   0.00008   0.00023
  41 8   H  1S          0.00000   0.00001   0.00000   0.00001   0.00002
  42        2S          0.00004   0.00022   0.00003   0.00008   0.00023
                          16        17        18        19        20
  16 2   H  1S          0.19427
  17        2S          0.04736   0.03475
  18 3   H  1S         -0.00097  -0.00509   0.19427
  19        2S         -0.00509  -0.00547   0.04736   0.03475
  20 4   H  1S         -0.00097  -0.00509  -0.00097  -0.00509   0.19427
  21        2S         -0.00509  -0.00547  -0.00509  -0.00547   0.04736
  22 5   B  1S          0.00000   0.00002   0.00000   0.00002   0.00000
  23        2S         -0.00011   0.00019  -0.00011   0.00019  -0.00011
  24        2PX        -0.00006  -0.00049  -0.00024  -0.00197  -0.00006
  25        2PY        -0.00018  -0.00148   0.00000   0.00000  -0.00018
  26        2PZ        -0.00040  -0.00255  -0.00040  -0.00255  -0.00040
  27        3S          0.00031   0.00267   0.00031   0.00267   0.00031
  28        3PX        -0.00057  -0.00099  -0.00226  -0.00397  -0.00057
  29        3PY        -0.00170  -0.00298   0.00000   0.00000  -0.00170
  30        3PZ        -0.00026  -0.00064  -0.00026  -0.00064  -0.00026
  31        4XX         0.00000   0.00001   0.00002   0.00041   0.00000
  32        4YY         0.00001   0.00026   0.00000  -0.00010   0.00001
  33        4ZZ        -0.00001  -0.00045  -0.00001  -0.00045  -0.00001
  34        4XY         0.00001   0.00004   0.00000   0.00000   0.00001
  35        4XZ         0.00001   0.00003   0.00004   0.00012   0.00001
  36        4YZ         0.00003   0.00009   0.00000   0.00000   0.00003
  37 6   H  1S          0.00000  -0.00019   0.00000   0.00019   0.00000
  38        2S         -0.00030  -0.00124   0.00016   0.00213  -0.00030
  39 7   H  1S          0.00000   0.00019   0.00000  -0.00019   0.00000
  40        2S          0.00016   0.00213  -0.00030  -0.00124  -0.00030
  41 8   H  1S          0.00000  -0.00019   0.00000  -0.00019   0.00000
  42        2S         -0.00030  -0.00124  -0.00030  -0.00124   0.00016
                          21        22        23        24        25
  21        2S          0.03475
  22 5   B  1S          0.00002   2.05127
  23        2S          0.00019  -0.01054   0.14277
  24        2PX        -0.00049   0.00000   0.00000   0.27519
  25        2PY        -0.00148   0.00000   0.00000   0.00000   0.27519
  26        2PZ        -0.00255   0.00000   0.00000   0.00000   0.00000
  27        3S          0.00267  -0.02013   0.08814   0.00000   0.00000
  28        3PX        -0.00099   0.00000   0.00000   0.07242   0.00000
  29        3PY        -0.00298   0.00000   0.00000   0.00000   0.07242
  30        3PZ        -0.00064   0.00000   0.00000   0.00000   0.00000
  31        4XX         0.00001  -0.00088   0.01121   0.00000   0.00000
  32        4YY         0.00026  -0.00088   0.01121   0.00000   0.00000
  33        4ZZ        -0.00045  -0.00006  -0.00021   0.00000   0.00000
  34        4XY         0.00004   0.00000   0.00000   0.00000   0.00000
  35        4XZ         0.00003   0.00000   0.00000   0.00000   0.00000
  36        4YZ         0.00009   0.00000   0.00000   0.00000   0.00000
  37 6   H  1S         -0.00019  -0.00156   0.02292   0.07551   0.00000
  38        2S         -0.00124  -0.00485   0.04081   0.08565   0.00000
  39 7   H  1S         -0.00019  -0.00156   0.02292   0.01888   0.05664
  40        2S         -0.00124  -0.00485   0.04081   0.02141   0.06424
  41 8   H  1S          0.00019  -0.00156   0.02292   0.01888   0.05664
  42        2S          0.00213  -0.00485   0.04081   0.02141   0.06424
                          26        27        28        29        30
  26        2PZ         0.09952
  27        3S          0.00000   0.09894
  28        3PX         0.00000   0.00000   0.05105
  29        3PY         0.00000   0.00000   0.00000   0.05105
  30        3PZ         0.00562   0.00000   0.00000   0.00000   0.00096
  31        4XX         0.00000   0.00966   0.00000   0.00000   0.00000
  32        4YY         0.00000   0.00966   0.00000   0.00000   0.00000
  33        4ZZ         0.00000  -0.00532   0.00000   0.00000   0.00000
  34        4XY         0.00000   0.00000   0.00000   0.00000   0.00000
  35        4XZ         0.00000   0.00000   0.00000   0.00000   0.00000
  36        4YZ         0.00000   0.00000   0.00000   0.00000   0.00000
  37 6   H  1S          0.00441   0.02454   0.03745   0.00000   0.00071
  38        2S          0.00451   0.04954   0.06270   0.00000   0.00100
  39 7   H  1S          0.00441   0.02454   0.00936   0.02809   0.00071
  40        2S          0.00451   0.04954   0.01567   0.04702   0.00100
  41 8   H  1S          0.00441   0.02454   0.00936   0.02809   0.00071
  42        2S          0.00451   0.04954   0.01567   0.04702   0.00100
                          31        32        33        34        35
  31        4XX         0.00454
  32        4YY         0.00010   0.00454
  33        4ZZ        -0.00053  -0.00053   0.00347
  34        4XY         0.00000   0.00000   0.00000   0.00283
  35        4XZ         0.00000   0.00000   0.00000   0.00000   0.00034
  36        4YZ         0.00000   0.00000   0.00000   0.00000   0.00000
  37 6   H  1S          0.01266  -0.00056  -0.00054   0.00000   0.00102
  38        2S          0.01514  -0.00353  -0.00207   0.00000   0.00042
  39 7   H  1S          0.00047   0.00708  -0.00054   0.00454   0.00025
  40        2S          0.00021   0.00954  -0.00207   0.00187   0.00010
  41 8   H  1S          0.00047   0.00708  -0.00054   0.00454   0.00025
  42        2S          0.00021   0.00954  -0.00207   0.00187   0.00010
                          36        37        38        39        40
  36        4YZ         0.00034
  37 6   H  1S          0.00000   0.19900
  38        2S          0.00000   0.15196   0.27124
  39 7   H  1S          0.00076  -0.00009  -0.00322   0.19900
  40        2S          0.00031  -0.00322  -0.01687   0.15196   0.27124
  41 8   H  1S          0.00076  -0.00009  -0.00322  -0.00009  -0.00322
  42        2S          0.00031  -0.00322  -0.01687  -0.00322  -0.01687
                          41        42
  41 8   H  1S          0.19900
  42        2S          0.15196   0.27124
     Gross orbital populations:
                           1
   1 1   N  1S          1.99539
   2        2S          0.76975
   3        2PX         0.79914
   4        2PY         0.79914
   5        2PZ         0.91704
   6        3S          0.82745
   7        3PX         0.52173
   8        3PY         0.52173
   9        3PZ         0.69396
  10        4XX         0.02744
  11        4YY         0.02744
  12        4ZZ         0.00543
  13        4XY         0.00848
  14        4XZ         0.01048
  15        4YZ         0.01048
  16 2   H  1S          0.49399
  17        2S          0.10671
  18 3   H  1S          0.49399
  19        2S          0.10671
  20 4   H  1S          0.49399
  21        2S          0.10671
  22 5   B  1S          1.99717
  23        2S          0.44988
  24        2PX         0.58557
  25        2PY         0.58557
  26        2PZ         0.27175
  27        3S          0.33800
  28        3PX         0.25210
  29        3PY         0.25210
  30        3PZ         0.02204
  31        4XX         0.04739
  32        4YY         0.04739
  33        4ZZ         0.02336
  34        4XY         0.01574
  35        4XZ         0.00357
  36        4YZ         0.00357
  37 6   H  1S          0.51615
  38        2S          0.60639
  39 7   H  1S          0.51615
  40        2S          0.60639
  41 8   H  1S          0.51615
  42        2S          0.60639
          Condensed to atoms (all electrons):
               1          2          3          4          5          6
     1  N    6.962565   0.320389   0.320389   0.320389   0.100436  -0.029698
     2  H    0.320389   0.323732  -0.016619  -0.016619  -0.009183  -0.001739
     3  H    0.320389  -0.016619   0.323732  -0.016619  -0.009183   0.002480
     4  H    0.320389  -0.016619  -0.016619   0.323732  -0.009183  -0.001739
     5  B    0.100436  -0.009183  -0.009183  -0.009183   3.544678   0.425877
     6  H   -0.029698  -0.001739   0.002480  -0.001739   0.425877   0.774152
     7  H   -0.029698   0.002480  -0.001739  -0.001739   0.425877  -0.023396
     8  H   -0.029698  -0.001739  -0.001739   0.002480   0.425877  -0.023396
               7          8
     1  N   -0.029698  -0.029698
     2  H    0.002480  -0.001739
     3  H   -0.001739  -0.001739
     4  H   -0.001739   0.002480
     5  B    0.425877   0.425877
     6  H   -0.023396  -0.023396
     7  H    0.774152  -0.023396
     8  H   -0.023396   0.774152
 Mulliken charges:
               1
     1  N   -0.935076
     2  H    0.399298
     3  H    0.399298
     4  H    0.399298
     5  B    0.104805
     6  H   -0.122541
     7  H   -0.122541
     8  H   -0.122541
 Sum of Mulliken charges =   0.00000
 Mulliken charges with hydrogens summed into heavy atoms:
               1
     1  N    0.262819
     5  B   -0.262819
 Electronic spatial extent (au):  <R**2>=            119.2326
 Charge=              0.0000 electrons
 Dipole moment (field-independent basis, Debye):
    X=              0.0000    Y=              0.0000    Z=              5.5771  Tot=              5.5771
 Quadrupole moment (field-independent basis, Debye-Ang):
   XX=            -15.9085   YY=            -15.9085   ZZ=            -16.3808
   XY=              0.0000   XZ=              0.0000   YZ=              0.0000
 Traceless Quadrupole moment (field-independent basis, Debye-Ang):
   XX=              0.1574   YY=              0.1574   ZZ=             -0.3149
   XY=              0.0000   XZ=              0.0000   YZ=              0.0000
 Octapole moment (field-independent basis, Debye-Ang**2):
  XXX=             -1.8440  YYY=              0.0000  ZZZ=             18.7197  XYY=              1.8440
  XXY=              0.0000  XXZ=              8.6777  XZZ=              0.0000  YZZ=              0.0000
  YYZ=              8.6777  XYZ=              0.0000
 Hexadecapole moment (field-independent basis, Debye-Ang**3):
 XXXX=            -34.8831 YYYY=            -34.8830 ZZZZ=           -108.8642 XXXY=              0.0000
 XXXZ=             -0.5317 YYYX=              0.0000 YYYZ=              0.0000 ZZZX=              0.0000
 ZZZY=              0.0000 XXYY=            -11.6277 XXZZ=            -24.3176 YYZZ=            -24.3176
 XXYZ=              0.0000 YYXZ=              0.5317 ZZXY=              0.0000
 N-N= 4.045292450112D+01 E-N=-2.728487681164D+02  KE= 8.251694745304D+01
 Orbital energies and kinetic energies (alpha):
                                 1                 2
   1         O               -15.641554         22.075522
   2         O                -7.522180         10.900572
   3         O                -1.249340          1.797151
   4         O                -0.728581          1.341138
   5         O                -0.728581          1.341138
   6         O                -0.702802          1.124030
   7         O                -0.504915          1.247859
   8         O                -0.410440          0.715532
   9         O                -0.410440          0.715532
  10         V                 0.171662          0.896636
  11         V                 0.261093          0.849202
  12         V                 0.261093          0.849202
  13         V                 0.335188          0.827425
  14         V                 0.362691          0.605052
  15         V                 0.362691          0.605052
  16         V                 0.402916          1.122694
  17         V                 0.649886          1.401361
  18         V                 0.649886          1.401361
  19         V                 0.699560          1.778212
  20         V                 0.873205          1.737346
  21         V                 0.873205          1.737346
  22         V                 0.887739          1.851516
  23         V                 1.046948          2.001978
  24         V                 1.145759          3.394450
  25         V                 1.145759          3.394450
  26         V                 1.170799          2.973839
  27         V                 1.227327          2.204246
  28         V                 1.227327          2.204246
  29         V                 1.267547          2.461505
  30         V                 1.561573          2.246477
  31         V                 1.561573          2.246477
  32         V                 1.701051          2.670613
  33         V                 1.974280          2.925382
  34         V                 2.063200          2.923030
  35         V                 2.063200          2.923031
  36         V                 2.195396          3.007073
  37         V                 2.195397          3.007073
  38         V                 2.692417          3.812548
  39         V                 2.692418          3.812548
  40         V                 2.709361          3.812871
  41         V                 3.925382          8.035145
  42         V                 4.184131          9.864206
 Total kinetic energy from orbitals= 8.251694745304D+01
 No NMR shielding tensors so no spin-rotation constants.
 Leave Link  601 at Wed Mar 22 14:57:11 2017, MaxMem=   183500800 cpu:         0.0
 (Enter d:\study\G09W\l9999.exe)
 1|1|UNPC-X500|SP|RHF|6-31G(d)|B1H6N1|SOBEREVA|22-Mar-2017|0||#P hf/6-3
 1G* pop=full nosymm guess=cards||Please check this file to ensure vali
 dity||0,1|N,0,0.,0.,0.74008|H,0,0.468997,-0.812327,1.098425|H,0,-0.937
 995,0.,1.098425|H,0,0.468998,0.812327,1.098425|B,0,0.,0.,-0.947107|H,0
 ,1.170832,0.,-1.246766|H,0,-0.585416,1.01397,-1.246766|H,0,-0.585416,-
 1.01397,-1.246766||Version=IA32W-G09RevD.01|HF=-82.6118176|RMSD=2.069e
 -009|Dipole=-0.0000001,0.,2.1941905|Quadrupole=0.117047,0.117045,-0.23
 4092,0.0000012,0.0000005,-0.0000002|PG=C03V [C3(B1N1),3SGV(H2)]||@


 The most important thing in communication is to hear what isn't being said.
 -- Peter F. Drucker
 Job cpu time:       0 days  0 hours  0 minutes  1.0 seconds.
 File lengths (MBytes):  RWF=      5 Int=      0 D2E=      0 Chk=      1 Scr=      1
 Normal termination of Gaussian 09 at Wed Mar 22 14:57:11 2017.
