 Default is to use a total of   4 processors:
                                4 via shared-memory
                                1 via Linda
 Entering Link 1 = d:\study\G09W\l1.exe PID=      3040.
  
 Copyright (c) 1988,1990,1992,1993,1995,1998,2003,2009,2013,
            Gaussian, Inc.  All Rights Reserved.
  
 This is part of the Gaussian(R) 09 program.  It is based on
 the Gaussian(R) 03 system (copyright 2003, Gaussian, Inc.),
 the Gaussian(R) 98 system (copyright 1998, Gaussian, Inc.),
 the Gaussian(R) 94 system (copyright 1995, Gaussian, Inc.),
 the Gaussian 92(TM) system (copyright 1992, Gaussian, Inc.),
 the Gaussian 90(TM) system (copyright 1990, Gaussian, Inc.),
 the Gaussian 88(TM) system (copyright 1988, Gaussian, Inc.),
 the Gaussian 86(TM) system (copyright 1986, Carnegie Mellon
 University), and the Gaussian 82(TM) system (copyright 1983,
 Carnegie Mellon University). Gaussian is a federally registered
 trademark of Gaussian, Inc.
  
 This software contains proprietary and confidential information,
 including trade secrets, belonging to Gaussian, Inc.
  
 This software is provided under written license and may be
 used, copied, transmitted, or stored only in accord with that
 written license.
  
 The following legend is applicable only to US Government
 contracts under FAR:
  
                    RESTRICTED RIGHTS LEGEND
  
 Use, reproduction and disclosure by the US Government is
 subject to restrictions as set forth in subparagraphs (a)
 and (c) of the Commercial Computer Software - Restricted
 Rights clause in FAR 52.227-19.
  
 Gaussian, Inc.
 340 Quinnipiac St., Bldg. 40, Wallingford CT 06492
  
  
 ---------------------------------------------------------------
 Warning -- This program may not be used in any manner that
 competes with the business of Gaussian, Inc. or will provide
 assistance to any competitor of Gaussian, Inc.  The licensee
 of this program is prohibited from giving any competitor of
 Gaussian, Inc. access to this program.  By using this program,
 the user acknowledges that Gaussian, Inc. is engaged in the
 business of creating and licensing software in the field of
 computational chemistry and represents and warrants to the
 licensee that it is not a competitor of Gaussian, Inc. and that
 it will not use this program in any manner prohibited above.
 ---------------------------------------------------------------
  

 Cite this work as:
 Gaussian 09, Revision D.01,
 M. J. Frisch, G. W. Trucks, H. B. Schlegel, G. E. Scuseria, 
 M. A. Robb, J. R. Cheeseman, G. Scalmani, V. Barone, B. Mennucci, 
 G. A. Petersson, H. Nakatsuji, M. Caricato, X. Li, H. P. Hratchian, 
 A. F. Izmaylov, J. Bloino, G. Zheng, J. L. Sonnenberg, M. Hada, 
 M. Ehara, K. Toyota, R. Fukuda, J. Hasegawa, M. Ishida, T. Nakajima, 
 Y. Honda, O. Kitao, H. Nakai, T. Vreven, J. A. Montgomery, Jr., 
 J. E. Peralta, F. Ogliaro, M. Bearpark, J. J. Heyd, E. Brothers, 
 K. N. Kudin, V. N. Staroverov, T. Keith, R. Kobayashi, J. Normand, 
 K. Raghavachari, A. Rendell, J. C. Burant, S. S. Iyengar, J. Tomasi, 
 M. Cossi, N. Rega, J. M. Millam, M. Klene, J. E. Knox, J. B. Cross, 
 V. Bakken, C. Adamo, J. Jaramillo, R. Gomperts, R. E. Stratmann, 
 O. Yazyev, A. J. Austin, R. Cammi, C. Pomelli, J. W. Ochterski, 
 R. L. Martin, K. Morokuma, V. G. Zakrzewski, G. A. Voth, 
 P. Salvador, J. J. Dannenberg, S. Dapprich, A. D. Daniels, 
 O. Farkas, J. B. Foresman, J. V. Ortiz, J. Cioslowski, 
 and D. J. Fox, Gaussian, Inc., Wallingford CT, 2013.
 
 ******************************************
 Gaussian 09:  IA32W-G09RevD.01 24-Apr-2013
                22-Mar-2017 
 ******************************************
 -----------
 # hf/6-31G*
 -----------
 1/38=1/1;
 2/12=2,17=6,18=5,40=1/2;
 3/5=1,6=6,7=1,11=9,16=1,25=1,30=1/1,2,3;
 4//1;
 5/5=2,38=5/2;
 6/7=2,8=2,9=2,10=2,28=1/1;
 99/5=1,9=1/99;
 ---------------
 hf/6-31G* opted
 ---------------
 Symbolic Z-matrix:
 Charge =  0 Multiplicity = 1
 N                     0.        0.        0.74008 
 H                     0.469    -0.81233   1.09843 
 H                    -0.938     0.        1.09843 
 H                     0.469     0.81233   1.09843 
 B                     0.        0.       -0.94711 
 H                     1.17083   0.       -1.24677 
 H                    -0.58542   1.01397  -1.24677 
 H                    -0.58542  -1.01397  -1.24677 
 
                          Input orientation:                          
 ---------------------------------------------------------------------
 Center     Atomic      Atomic             Coordinates (Angstroms)
 Number     Number       Type             X           Y           Z
 ---------------------------------------------------------------------
      1          7           0        0.000000    0.000000    0.740080
      2          1           0        0.468997   -0.812327    1.098425
      3          1           0       -0.937995    0.000000    1.098425
      4          1           0        0.468998    0.812327    1.098425
      5          5           0        0.000000    0.000000   -0.947107
      6          1           0        1.170832    0.000000   -1.246766
      7          1           0       -0.585416    1.013970   -1.246766
      8          1           0       -0.585416   -1.013970   -1.246766
 ---------------------------------------------------------------------
                    Distance matrix (angstroms):
                    1          2          3          4          5
     1  N    0.000000
     2  H    1.004114   0.000000
     3  H    1.004114   1.624654   0.000000
     4  H    1.004114   1.624654   1.624655   0.000000
     5  B    1.687187   2.250341   2.250341   2.250341   0.000000
     6  H    2.306167   2.579219   3.153898   2.579218   1.208571
     7  H    2.306167   3.153897   2.579218   2.579219   1.208570
     8  H    2.306167   2.579218   2.579218   3.153898   1.208570
                    6          7          8
     6  H    0.000000
     7  H    2.027940   0.000000
     8  H    2.027940   2.027940   0.000000
 Stoichiometry    BH6N
 Framework group  C3V[C3(BN),3SGV(H2)]
 Deg. of freedom     5
 Full point group                 C3V     NOp   6
 Largest Abelian subgroup         CS      NOp   2
 Largest concise Abelian subgroup CS      NOp   2
                         Standard orientation:                         
 ---------------------------------------------------------------------
 Center     Atomic      Atomic             Coordinates (Angstroms)
 Number     Number       Type             X           Y           Z
 ---------------------------------------------------------------------
      1          7           0        0.000000    0.000000    0.740080
      2          1           0        0.000000    0.937994    1.098425
      3          1           0        0.812327   -0.468997    1.098425
      4          1           0       -0.812327   -0.468997    1.098425
      5          5           0        0.000000    0.000000   -0.947107
      6          1           0       -1.013970    0.585416   -1.246766
      7          1           0        0.000000   -1.170832   -1.246766
      8          1           0        1.013970    0.585416   -1.246766
 ---------------------------------------------------------------------
 Rotational constants (GHZ):     74.2671692     17.2561366     17.2561366
 Standard basis: 6-31G(d) (6D, 7F)
 There are    30 symmetry adapted cartesian basis functions of A'  symmetry.
 There are    12 symmetry adapted cartesian basis functions of A"  symmetry.
 There are    30 symmetry adapted basis functions of A'  symmetry.
 There are    12 symmetry adapted basis functions of A"  symmetry.
    42 basis functions,    80 primitive gaussians,    42 cartesian basis functions
     9 alpha electrons        9 beta electrons
       nuclear repulsion energy        40.4529282258 Hartrees.
 NAtoms=    8 NActive=    8 NUniq=    4 SFac= 4.00D+00 NAtFMM=   60 NAOKFM=F Big=F
 Integral buffers will be    262144 words long.
 Raffenetti 1 integral format.
 Two-electron integral symmetry is turned on.
 One-electron integrals computed using PRISM.
 NBasis=    42 RedAO= T EigKep=  1.16D-02  NBF=    30    12
 NBsUse=    42 1.00D-06 EigRej= -1.00D+00 NBFU=    30    12
 ExpMin= 1.27D-01 ExpMax= 4.17D+03 ExpMxC= 6.27D+02 IAcc=1 IRadAn=         1 AccDes= 0.00D+00
 Harris functional with IExCor=  205 and IRadAn=       1 diagonalized for initial guess.
 HarFok:  IExCor=  205 AccDes= 0.00D+00 IRadAn=         1 IDoV= 1 UseB2=F ITyADJ=14
 ICtDFT=  3500011 ScaDFX=  1.000000  1.000000  1.000000  1.000000
 FoFCou: FMM=F IPFlag=           0 FMFlag=      100000 FMFlg1=           0
         NFxFlg=           0 DoJE=T BraDBF=F KetDBF=T FulRan=T
         wScrn=  0.000000 ICntrl=     500 IOpCl=  0 I1Cent=   200000004 NGrid=           0
         NMat0=    1 NMatS0=      1 NMatT0=    0 NMatD0=    1 NMtDS0=    0 NMtDT0=    0
 Petite list used in FoFCou.
 Initial guess orbital symmetries:
       Occupied  (A1) (A1) (A1) (A1) (E) (E) (A1) (E) (E)
       Virtual   (A1) (A1) (E) (E) (E) (E) (A1) (E) (E) (A1) (A1)
                 (E) (E) (A1) (E) (E) (E) (E) (A1) (A1) (E) (E)
                 (A1) (A1) (E) (E) (E) (E) (A1) (E) (E) (A1) (A1)
 The electronic state of the initial guess is 1-A1.
 Keep R1 ints in memory in symmetry-blocked form, NReq=1271081.
 Requested convergence on RMS density matrix=1.00D-08 within 128 cycles.
 Requested convergence on MAX density matrix=1.00D-06.
 Requested convergence on             energy=1.00D-06.
 No special actions if energy rises.
 SCF Done:  E(RHF) =  -82.6118176359     A.U. after   11 cycles
            NFock= 11  Conv=0.14D-08     -V/T= 2.0011

 **********************************************************************

            Population analysis using the SCF density.

 **********************************************************************

 Orbital symmetries:
       Occupied  (A1) (A1) (A1) (E) (E) (A1) (A1) (E) (E)
       Virtual   (A1) (E) (E) (A1) (E) (E) (A1) (E) (E) (A1) (E)
                 (E) (A1) (A1) (E) (E) (A1) (E) (E) (A1) (E) (E)
                 (A1) (A1) (E) (E) (E) (E) (E) (E) (A1) (A1) (A1)
 The electronic state is 1-A1.
 Alpha  occ. eigenvalues --  -15.64155  -7.52218  -1.24934  -0.72858  -0.72858
 Alpha  occ. eigenvalues --   -0.70280  -0.50491  -0.41044  -0.41044
 Alpha virt. eigenvalues --    0.17166   0.26109   0.26109   0.33519   0.36269
 Alpha virt. eigenvalues --    0.36269   0.40292   0.64989   0.64989   0.69956
 Alpha virt. eigenvalues --    0.87321   0.87321   0.88774   1.04695   1.14576
 Alpha virt. eigenvalues --    1.14576   1.17080   1.22733   1.22733   1.26755
 Alpha virt. eigenvalues --    1.56157   1.56157   1.70105   1.97428   2.06320
 Alpha virt. eigenvalues --    2.06320   2.19540   2.19540   2.69242   2.69242
 Alpha virt. eigenvalues --    2.70936   3.92538   4.18413
          Condensed to atoms (all electrons):
               1          2          3          4          5          6
     1  N    6.962565   0.320389   0.320389   0.320389   0.100436  -0.029698
     2  H    0.320389   0.323732  -0.016619  -0.016619  -0.009183  -0.001739
     3  H    0.320389  -0.016619   0.323732  -0.016619  -0.009183   0.002480
     4  H    0.320389  -0.016619  -0.016619   0.323732  -0.009183  -0.001739
     5  B    0.100436  -0.009183  -0.009183  -0.009183   3.544678   0.425877
     6  H   -0.029698  -0.001739   0.002480  -0.001739   0.425877   0.774152
     7  H   -0.029698   0.002480  -0.001739  -0.001739   0.425877  -0.023396
     8  H   -0.029698  -0.001739  -0.001739   0.002480   0.425877  -0.023396
               7          8
     1  N   -0.029698  -0.029698
     2  H    0.002480  -0.001739
     3  H   -0.001739  -0.001739
     4  H   -0.001739   0.002480
     5  B    0.425877   0.425877
     6  H   -0.023396  -0.023396
     7  H    0.774152  -0.023396
     8  H   -0.023396   0.774152
 Mulliken charges:
               1
     1  N   -0.935076
     2  H    0.399298
     3  H    0.399298
     4  H    0.399298
     5  B    0.104805
     6  H   -0.122541
     7  H   -0.122541
     8  H   -0.122541
 Sum of Mulliken charges =   0.00000
 Mulliken charges with hydrogens summed into heavy atoms:
               1
     1  N    0.262819
     5  B   -0.262819
 Electronic spatial extent (au):  <R**2>=            119.2326
 Charge=              0.0000 electrons
 Dipole moment (field-independent basis, Debye):
    X=              0.0000    Y=              0.0000    Z=              5.5771  Tot=              5.5771
 Quadrupole moment (field-independent basis, Debye-Ang):
   XX=            -15.9085   YY=            -15.9085   ZZ=            -16.3808
   XY=              0.0000   XZ=              0.0000   YZ=              0.0000
 Traceless Quadrupole moment (field-independent basis, Debye-Ang):
   XX=              0.1574   YY=              0.1574   ZZ=             -0.3149
   XY=              0.0000   XZ=              0.0000   YZ=              0.0000
 Octapole moment (field-independent basis, Debye-Ang**2):
  XXX=              0.0000  YYY=              1.8440  ZZZ=             18.7197  XYY=              0.0000
  XXY=             -1.8440  XXZ=              8.6777  XZZ=              0.0000  YZZ=              0.0000
  YYZ=              8.6777  XYZ=              0.0000
 Hexadecapole moment (field-independent basis, Debye-Ang**3):
 XXXX=            -34.8831 YYYY=            -34.8831 ZZZZ=           -108.8642 XXXY=              0.0000
 XXXZ=              0.0000 YYYX=              0.0000 YYYZ=              0.5317 ZZZX=              0.0000
 ZZZY=              0.0000 XXYY=            -11.6277 XXZZ=            -24.3176 YYZZ=            -24.3176
 XXYZ=             -0.5317 YYXZ=              0.0000 ZZXY=              0.0000
 N-N= 4.045292822577D+01 E-N=-2.728487759885D+02  KE= 8.251694900639D+01
 Symmetry A'   KE= 7.840360792561D+01
 Symmetry A"   KE= 4.113341080786D+00
 1|1|UNPC-X500|SP|RHF|6-31G(d)|B1H6N1|SOBEREVA|22-Mar-2017|0||# hf/6-31
 G*||hf/6-31G* opted||0,1|N,0,0.,0.,0.74008|H,0,0.468997,-0.812327,1.09
 8425|H,0,-0.937995,0.,1.098425|H,0,0.468998,0.812327,1.098425|B,0,0.,0
 .,-0.947107|H,0,1.170832,0.,-1.246766|H,0,-0.585416,1.01397,-1.246766|
 H,0,-0.585416,-1.01397,-1.246766||Version=IA32W-G09RevD.01|State=1-A1|
 HF=-82.6118176|RMSD=1.383e-009|Dipole=0.,0.,2.1941907|Quadrupole=0.117
 0456,0.1170456,-0.2340912,0.,0.,0.|PG=C03V [C3(B1N1),3SGV(H2)]||@


 The most important thing in communication is to hear what isn't being said.
 -- Peter F. Drucker
 Job cpu time:       0 days  0 hours  0 minutes  1.0 seconds.
 File lengths (MBytes):  RWF=      5 Int=      0 D2E=      0 Chk=      1 Scr=      1
 Normal termination of Gaussian 09 at Wed Mar 22 14:57:05 2017.
