 Entering Gaussian System, Link 0=g09
 Initial command:
 /home/chen/bkd/g09E01/g09/l1.exe "/home/chen/lt/g09scr/Gau-25154.inp" -scrdir="/home/chen/lt/g09scr/"
 Entering Link 1 = /home/chen/bkd/g09E01/g09/l1.exe PID=     25155.
  
 Copyright (c) 1988,1990,1992,1993,1995,1998,2003,2009,2015,
            Gaussian, Inc.  All Rights Reserved.
  
 This is part of the Gaussian(R) 09 program.  It is based on
 the Gaussian(R) 03 system (copyright 2003, Gaussian, Inc.),
 the Gaussian(R) 98 system (copyright 1998, Gaussian, Inc.),
 the Gaussian(R) 94 system (copyright 1995, Gaussian, Inc.),
 the Gaussian 92(TM) system (copyright 1992, Gaussian, Inc.),
 the Gaussian 90(TM) system (copyright 1990, Gaussian, Inc.),
 the Gaussian 88(TM) system (copyright 1988, Gaussian, Inc.),
 the Gaussian 86(TM) system (copyright 1986, Carnegie Mellon
 University), and the Gaussian 82(TM) system (copyright 1983,
 Carnegie Mellon University). Gaussian is a federally registered
 trademark of Gaussian, Inc.
  
 This software contains proprietary and confidential information,
 including trade secrets, belonging to Gaussian, Inc.
  
 This software is provided under written license and may be
 used, copied, transmitted, or stored only in accord with that
 written license.
  
 The following legend is applicable only to US Government
 contracts under FAR:
  
                    RESTRICTED RIGHTS LEGEND
  
 Use, reproduction and disclosure by the US Government is
 subject to restrictions as set forth in subparagraphs (a)
 and (c) of the Commercial Computer Software - Restricted
 Rights clause in FAR 52.227-19.
  
 Gaussian, Inc.
 340 Quinnipiac St., Bldg. 40, Wallingford CT 06492
  
  
 ---------------------------------------------------------------
 Warning -- This program may not be used in any manner that
 competes with the business of Gaussian, Inc. or will provide
 assistance to any competitor of Gaussian, Inc.  The licensee
 of this program is prohibited from giving any competitor of
 Gaussian, Inc. access to this program.  By using this program,
 the user acknowledges that Gaussian, Inc. is engaged in the
 business of creating and licensing software in the field of
 computational chemistry and represents and warrants to the
 licensee that it is not a competitor of Gaussian, Inc. and that
 it will not use this program in any manner prohibited above.
 ---------------------------------------------------------------
  

 Cite this work as:
 Gaussian 09, Revision E.01,
 M. J. Frisch, G. W. Trucks, H. B. Schlegel, G. E. Scuseria, 
 M. A. Robb, J. R. Cheeseman, G. Scalmani, V. Barone, B. Mennucci, 
 G. A. Petersson, H. Nakatsuji, M. Caricato, X. Li, H. P. Hratchian, 
 A. F. Izmaylov, J. Bloino, G. Zheng, J. L. Sonnenberg, M. Hada, 
 M. Ehara, K. Toyota, R. Fukuda, J. Hasegawa, M. Ishida, T. Nakajima, 
 Y. Honda, O. Kitao, H. Nakai, T. Vreven, J. A. Montgomery, Jr., 
 J. E. Peralta, F. Ogliaro, M. Bearpark, J. J. Heyd, E. Brothers, 
 K. N. Kudin, V. N. Staroverov, T. Keith, R. Kobayashi, J. Normand, 
 K. Raghavachari, A. Rendell, J. C. Burant, S. S. Iyengar, J. Tomasi, 
 M. Cossi, N. Rega, J. M. Millam, M. Klene, J. E. Knox, J. B. Cross, 
 V. Bakken, C. Adamo, J. Jaramillo, R. Gomperts, R. E. Stratmann, 
 O. Yazyev, A. J. Austin, R. Cammi, C. Pomelli, J. W. Ochterski, 
 R. L. Martin, K. Morokuma, V. G. Zakrzewski, G. A. Voth, 
 P. Salvador, J. J. Dannenberg, S. Dapprich, A. D. Daniels, 
 O. Farkas, J. B. Foresman, J. V. Ortiz, J. Cioslowski, 
 and D. J. Fox, Gaussian, Inc., Wallingford CT, 2013.
 
 ******************************************
 Gaussian 09:  ES64L-G09RevE.01 30-Nov-2015
                30-Mar-2017 
 ******************************************
 %mem=30GB
 %nprocshared=16
 Will use up to   16 processors via shared memory.
 -----------------------------
 # PBE1PBE/TZVP TD(nstates=20)
 -----------------------------
 1/38=1/1;
 2/12=2,17=6,18=5,40=1/2;
 3/5=19,7=101,11=9,16=1,25=1,30=1,74=-13/1,2,8,3;
 4//1;
 5/5=2,38=5/2;
 8/6=1,10=1,108=20/1;
 9/41=20,42=1,70=2/14;
 6/7=2,8=2,9=2,10=2/1;
 99/5=1,9=1/99;
 --------------------------
 Plumericin conformation 1a
 --------------------------
 Symbolic Z-matrix:
 Charge =  0 Multiplicity = 1
 C                    -0.18604   1.04472  -1.1484 
 O                     0.72028   1.87743  -0.37512 
 C                     1.98103   1.44286  -0.18361 
 C                     2.36539   0.15274  -0.21639 
 C                     1.34775  -0.95759  -0.35901 
 C                     0.95823  -1.52447   0.9972 
 C                    -0.34662  -1.42983   1.25592 
 C                    -1.10077  -0.81581   0.11255 
 C                    -0.01046  -0.46879  -0.93529 
 C                    -1.86888   0.5141    0.34647 
 O                    -1.48196   1.36315  -0.76073 
 C                     3.76025  -0.2451    0.02532 
 O                     4.12005  -1.40412   0.14584 
 O                     4.61659   0.80511   0.10552 
 C                     5.9833    0.45938   0.37443 
 O                    -2.08539  -1.74728  -0.40967 
 C                    -3.36334  -1.26154  -0.30549 
 C                    -3.3076    0.1261    0.23033 
 C                    -4.41209   0.8328    0.49893 
 C                    -4.46713   2.23859   1.00337 
 H                    -5.02215   2.28861   1.94952 
 H                     2.66699   2.2571    0.02554 
 H                    -0.064     1.35999  -2.18821 
 H                    -0.24627  -0.97229  -1.87581 
 H                     1.78127  -1.75227  -0.97679 
 H                    -1.59698   0.99967   1.289 
 H                     1.71079  -1.93764   1.6611 
 H                    -0.84641  -1.76693   2.1591 
 H                    -5.36258   0.33005   0.31845 
 H                    -3.47437   2.67187   1.14959 
 O                    -4.3278   -1.91431  -0.61852 
 H                    -5.01218   2.87211   0.29107 
 H                     6.38253  -0.17917  -0.41808 
 H                     6.52198   1.40702   0.40996 
 H                     6.06907  -0.06683   1.32913 
 
                          Input orientation:                          
 ---------------------------------------------------------------------
 Center     Atomic      Atomic             Coordinates (Angstroms)
 Number     Number       Type             X           Y           Z
 ---------------------------------------------------------------------
      1          6           0       -0.186042    1.044716   -1.148395
      2          8           0        0.720275    1.877431   -0.375123
      3          6           0        1.981031    1.442859   -0.183607
      4          6           0        2.365394    0.152739   -0.216387
      5          6           0        1.347748   -0.957593   -0.359013
      6          6           0        0.958225   -1.524466    0.997200
      7          6           0       -0.346616   -1.429830    1.255920
      8          6           0       -1.100767   -0.815806    0.112549
      9          6           0       -0.010458   -0.468794   -0.935293
     10          6           0       -1.868882    0.514095    0.346471
     11          8           0       -1.481955    1.363146   -0.760729
     12          6           0        3.760249   -0.245101    0.025319
     13          8           0        4.120052   -1.404122    0.145835
     14          8           0        4.616591    0.805108    0.105524
     15          6           0        5.983301    0.459380    0.374425
     16          8           0       -2.085392   -1.747276   -0.409669
     17          6           0       -3.363343   -1.261536   -0.305492
     18          6           0       -3.307600    0.126100    0.230330
     19          6           0       -4.412093    0.832800    0.498927
     20          6           0       -4.467130    2.238587    1.003366
     21          1           0       -5.022145    2.288607    1.949515
     22          1           0        2.666988    2.257095    0.025538
     23          1           0       -0.064000    1.359994   -2.188213
     24          1           0       -0.246271   -0.972294   -1.875807
     25          1           0        1.781270   -1.752265   -0.976794
     26          1           0       -1.596980    0.999667    1.288995
     27          1           0        1.710786   -1.937642    1.661099
     28          1           0       -0.846405   -1.766928    2.159100
     29          1           0       -5.362581    0.330052    0.318445
     30          1           0       -3.474369    2.671872    1.149585
     31          8           0       -4.327796   -1.914310   -0.618520
     32          1           0       -5.012180    2.872106    0.291071
     33          1           0        6.382535   -0.179166   -0.418084
     34          1           0        6.521976    1.407016    0.409958
     35          1           0        6.069068   -0.066826    1.329132
 ---------------------------------------------------------------------
                    Distance matrix (angstroms):
                    1          2          3          4          5
     1  C    0.000000
     2  O    1.453539   0.000000
     3  C    2.405315   1.347233   0.000000
     4  C    2.859036   2.388760   1.346558   0.000000
     5  C    2.642892   2.903677   2.488772   1.512872   0.000000
     6  C    3.537460   3.675975   3.353424   2.503185   1.520653
     7  C    3.453968   3.838819   3.967685   3.468027   2.387862
     8  C    2.426570   3.287483   3.832330   3.613938   2.497539
     9  C    1.538491   2.520423   2.861027   2.558867   1.554267
    10  C    2.312603   3.013821   3.995675   4.286780   3.606977
    11  O    1.389631   2.294122   3.511651   4.069826   3.681633
    12  C    4.314446   3.729201   2.461397   1.470483   2.544704
    13  O    5.119989   4.753785   3.576205   2.373572   2.853056
    14  O    4.969407   4.069665   2.726995   2.365819   3.742759
    15  C    6.381410   5.502012   4.158942   3.678633   4.902458
    16  O    3.456655   4.583826   5.173380   4.843234   3.523154
    17  C    4.015536   5.151107   5.990905   5.901402   4.721189
    18  C    3.533958   4.433679   5.465786   5.690617   4.816013
    19  C    4.540714   5.310030   6.458333   6.848977   6.092400
    20  C    4.937926   5.379576   6.604610   7.247202   6.773806
    21  H    5.876411   6.208735   7.369530   7.989293   7.512833
    22  H    3.314779   2.023454   1.085016   2.139580   3.496068
    23  H    1.093397   2.042088   2.864867   3.353732   3.272646
    24  H    2.145014   3.362617   3.695589   3.292441   2.200404
    25  H    3.423867   3.829153   3.298161   2.132712   1.095946
    26  H    2.816673   2.984867   3.894501   4.322484   3.901054
    27  H    4.515050   4.436451   3.860539   2.884988   2.274455
    28  H    4.391007   4.707242   4.877028   4.432123   3.436601
    29  H    5.427607   6.314789   7.444396   7.748489   6.866258
    30  H    4.329139   4.533311   5.748849   6.504978   6.221069
    31  O    5.117688   6.318193   7.159681   7.016637   5.761463
    32  H    5.357520   5.856128   7.153535   7.879154   7.452375
    33  H    6.721417   6.024336   4.696720   4.035872   5.094950
    34  H    6.896175   5.873447   4.579715   4.386649   5.740673
    35  H    6.819096   5.940893   4.612979   4.019209   5.092559
                    6          7          8          9         10
     6  C    0.000000
     7  C    1.333605   0.000000
     8  C    2.350373   1.501022   0.000000
     9  C    2.405685   2.416197   1.551504   0.000000
    10  C    3.545661   2.631204   1.553498   2.462261   0.000000
    11  O    4.169304   3.627200   2.378182   2.356222   1.447927
    12  C    3.229964   4.447955   4.895180   3.897569   5.689168
    13  O    3.276653   4.602616   5.253968   4.370903   6.291831
    14  O    4.427826   5.563433   5.942692   4.910775   6.496469
    15  C    5.438279   6.664383   7.202687   6.204999   7.852423
    16  O    3.360436   2.428642   1.452527   2.493220   2.394248
    17  C    4.521293   3.401025   2.343648   3.502417   2.410671
    18  C    4.637857   3.498597   2.402326   3.547354   1.494637
    19  C    5.886025   4.713877   3.719149   4.808901   2.567633
    20  C    6.602657   5.522654   4.631984   5.563294   3.186891
    21  H    7.156204   6.014019   5.328136   6.406433   3.957488
    22  H    4.261948   4.918238   4.862743   3.939846   4.869822
    23  H    4.417229   4.441288   3.332041   2.217463   3.224557
    24  H    3.163838   3.166563   2.169841   1.092560   3.127417
    25  H    2.150802   3.101109   3.220211   2.204384   4.495668
    26  H    3.603535   2.732574   2.219503   3.101755   1.094560
    27  H    1.085276   2.157532   3.400199   3.444045   4.533573
    28  H    2.159974   1.085891   2.271058   3.458212   3.087742
    29  H    6.622125   5.397773   4.417968   5.554749   3.498655
    30  H    6.105765   5.159274   4.344344   5.119490   2.806881
    31  O    5.541168   4.426967   3.486386   4.563909   3.588122
    32  H    7.448100   6.419118   5.378821   6.138632   3.929836
    33  H    5.765067   7.046128   7.529056   6.420417   8.315710
    34  H    6.316151   7.479365   7.945791   6.928280   8.438474
    35  H    5.324999   6.559279   7.310785   6.499987   8.019610
                   11         12         13         14         15
    11  O    0.000000
    12  C    5.539407   0.000000
    13  O    6.313645   1.219554   0.000000
    14  O    6.184987   1.357458   2.264702   0.000000
    15  C    7.604960   2.357993   2.645107   1.435177   0.000000
    16  O    3.187806   6.051220   6.239701   7.190039   8.401663
    17  C    3.261260   7.203342   7.498348   8.253442   9.528042
    18  C    2.417739   7.080559   7.584111   7.954208   9.297993
    19  C    3.233220   8.256715   8.827570   9.037293  10.402844
    20  C    3.576269   8.649569   9.367197   9.239858  10.619447
    21  H    4.553553   9.340913  10.023436   9.925034  11.267068
    22  H    4.316374   2.730605   3.940860   2.432204   3.788329
    23  H    2.012043   4.701163   5.531221   5.241857   6.629334
    24  H    2.867855   4.493917   4.830972   5.543668   6.776489
    25  H    4.516758   2.681815   2.617518   3.968704   4.937027
    26  H    2.084878   5.643246   6.306304   6.328264   7.654346
    27  H    5.191729   3.121021   2.895726   4.287913   5.065139
    28  H    4.327434   5.300023   5.371272   6.377842   7.401783
    29  H    4.158264   9.145641   9.641446   9.992742  11.346757
    30  H    3.054796   7.881142   8.677354   8.368901   9.743896
    31  O    4.342897   8.283554   8.497686   9.376648  10.627279
    32  H    3.980670   9.313598  10.084884   9.849880  11.257389
    33  H    8.021617   2.660327   2.633885   2.088425   1.093252
    34  H    8.089212   3.241076   3.706952   2.021253   1.090618
    35  H    7.964313   2.657509   2.643334   2.089779   1.093487
                   16         17         18         19         20
    16  O    0.000000
    17  C    1.371114   0.000000
    18  C    2.326570   1.488538   0.000000
    19  C    3.591083   2.476532   1.338460   0.000000
    20  C    4.853498   3.896449   2.530750   1.494565   0.000000
    21  H    5.520744   4.521083   3.251415   2.143768   1.098063
    22  H    6.229728   6.989652   6.346557   7.236443   7.200842
    23  H    4.111493   4.615487   4.229986   5.138537   5.508689
    24  H    2.476393   3.502240   3.874793   5.123651   6.034488
    25  H    3.908034   5.211382   5.557158   6.871540   7.674010
    26  H    3.266451   3.282601   2.193197   2.928637   3.139151
    27  H    4.328428   5.483738   5.611624   6.820238   7.485997
    28  H    2.852025   3.558737   3.655296   4.714752   5.521732
    29  H    3.947836   2.630476   2.066956   1.090301   2.216631
    30  H    4.887678   4.195387   2.711788   2.164456   1.093019
    31  O    2.258295   1.205931   2.434054   2.966885   4.460547
    32  H    5.513240   4.490161   3.232620   2.135902   1.098085
    33  H    8.611900   9.806444   9.716601  10.880670  11.206305
    34  H    9.203702  10.264140   9.914312  10.949498  11.036489
    35  H    8.505443   9.647264   9.442801  10.552407  10.790390
                   21         22         23         24         25
    21  H    0.000000
    22  H    7.926250   0.000000
    23  H    6.524287   3.628192   0.000000
    24  H    6.933652   4.746698   2.360167   0.000000
    25  H    8.436728   4.226598   3.815588   2.351064   0.000000
    26  H    3.718791   4.621566   3.817177   3.965982   4.911161
    27  H    7.954667   4.602738   5.370426   4.155920   2.645338
    28  H    5.824783   5.752285   5.411925   4.155969   4.091298
    29  H    2.571424   8.262764   5.951393   5.717296   7.553032
    30  H    1.783926   6.257139   4.948993   5.731802   7.191399
    31  O    4.974076   8.169604   5.600443   4.373444   6.121708
    32  H    1.758126   7.708331   5.737405   6.495280   8.315242
    33  H   11.906391   4.465138   6.860043   6.833380   4.894736
    34  H   11.679648   3.966276   7.080098   7.529609   5.863312
    35  H   11.355525   4.321356   7.212632   7.139679   5.152010
                   26         27         28         29         30
    26  H    0.000000
    27  H    4.439320   0.000000
    28  H    2.995746   2.610819   0.000000
    29  H    3.945897   7.548356   5.308595   0.000000
    30  H    2.517994   6.956659   5.256259   3.120939   0.000000
    31  O    4.425746   6.454586   4.456117   2.643075   4.988747
    32  H    4.020631   8.379077   6.508752   2.566236   1.772569
    33  H    8.244782   5.407447   7.837119  11.779199  10.380008
    34  H    8.176557   5.991631   8.211361  11.933605  10.103159
    35  H    7.739981   4.754448   7.169586  11.483101   9.930251
                   31         32         33         34         35
    31  O    0.000000
    32  H    4.919910   0.000000
    33  H   10.851824  11.817474   0.000000
    34  H   11.393267  11.627441   1.794734   0.000000
    35  H   10.737846  11.511253   1.778664   1.795053   0.000000
 Stoichiometry    C15H14O6
 Framework group  C1[X(C15H14O6)]
 Deg. of freedom    99
 Full point group                 C1      NOp   1
 Largest Abelian subgroup         C1      NOp   1
 Largest concise Abelian subgroup C1      NOp   1
                         Standard orientation:                         
 ---------------------------------------------------------------------
 Center     Atomic      Atomic             Coordinates (Angstroms)
 Number     Number       Type             X           Y           Z
 ---------------------------------------------------------------------
      1          6           0       -0.186042    1.044716   -1.148395
      2          8           0        0.720275    1.877431   -0.375123
      3          6           0        1.981031    1.442859   -0.183607
      4          6           0        2.365394    0.152739   -0.216387
      5          6           0        1.347748   -0.957593   -0.359013
      6          6           0        0.958225   -1.524466    0.997200
      7          6           0       -0.346616   -1.429830    1.255920
      8          6           0       -1.100767   -0.815806    0.112549
      9          6           0       -0.010458   -0.468794   -0.935293
     10          6           0       -1.868882    0.514095    0.346471
     11          8           0       -1.481955    1.363146   -0.760729
     12          6           0        3.760249   -0.245101    0.025319
     13          8           0        4.120052   -1.404122    0.145835
     14          8           0        4.616591    0.805108    0.105524
     15          6           0        5.983301    0.459380    0.374425
     16          8           0       -2.085392   -1.747276   -0.409669
     17          6           0       -3.363343   -1.261536   -0.305492
     18          6           0       -3.307600    0.126100    0.230330
     19          6           0       -4.412093    0.832800    0.498927
     20          6           0       -4.467130    2.238587    1.003366
     21          1           0       -5.022145    2.288607    1.949515
     22          1           0        2.666988    2.257095    0.025538
     23          1           0       -0.064000    1.359994   -2.188213
     24          1           0       -0.246271   -0.972294   -1.875807
     25          1           0        1.781270   -1.752265   -0.976794
     26          1           0       -1.596980    0.999667    1.288995
     27          1           0        1.710786   -1.937642    1.661099
     28          1           0       -0.846405   -1.766928    2.159100
     29          1           0       -5.362581    0.330052    0.318445
     30          1           0       -3.474369    2.671872    1.149585
     31          8           0       -4.327796   -1.914310   -0.618520
     32          1           0       -5.012180    2.872106    0.291071
     33          1           0        6.382535   -0.179166   -0.418084
     34          1           0        6.521976    1.407016    0.409958
     35          1           0        6.069068   -0.066826    1.329132
 ---------------------------------------------------------------------
 Rotational constants (GHZ):      0.8287050      0.1727145      0.1539333
 Standard basis: TZVP (5D, 7F)
 There are   504 symmetry adapted cartesian basis functions of A   symmetry.
 There are   483 symmetry adapted basis functions of A   symmetry.
   483 basis functions,   847 primitive gaussians,   504 cartesian basis functions
    76 alpha electrons       76 beta electrons
       nuclear repulsion energy      1723.0289022960 Hartrees.
 NAtoms=   35 NActive=   35 NUniq=   35 SFac= 1.00D+00 NAtFMM=   60 NAOKFM=F Big=F
 Integral buffers will be    131072 words long.
 Regular integral format.
 Two-electron integral symmetry is turned on.
 One-electron integrals computed using PRISM.
 NBasis=   483 RedAO= T EigKep=  1.40D-05  NBF=   483
 NBsUse=   483 1.00D-06 EigRej= -1.00D+00 NBFU=   483
 ExpMin= 9.52D-02 ExpMax= 2.70D+04 ExpMxC= 9.22D+02 IAcc=2 IRadAn=         4 AccDes= 0.00D+00
 Harris functional with IExCor= 1009 and IRadAn=       4 diagonalized for initial guess.
 HarFok:  IExCor= 1009 AccDes= 0.00D+00 IRadAn=         4 IDoV= 1 UseB2=F ITyADJ=14
 ICtDFT=  3500011 ScaDFX=  1.000000  1.000000  1.000000  1.000000
 FoFCou: FMM=F IPFlag=           0 FMFlag=      100000 FMFlg1=           0
         NFxFlg=           0 DoJE=T BraDBF=F KetDBF=T FulRan=T
         wScrn=  0.000000 ICntrl=     500 IOpCl=  0 I1Cent=   200000004 NGrid=           0
         NMat0=    1 NMatS0=      1 NMatT0=    0 NMatD0=    1 NMtDS0=    0 NMtDT0=    0
 Petite list used in FoFCou.
 Requested convergence on RMS density matrix=1.00D-08 within 128 cycles.
 Requested convergence on MAX density matrix=1.00D-06.
 Requested convergence on             energy=1.00D-06.
 No special actions if energy rises.
 Integral accuracy reduced to 1.0D-05 until final iterations.
 Initial convergence to 1.0D-05 achieved.  Increase integral accuracy.
 SCF Done:  E(RPBE1PBE) =  -1030.53164125     A.U. after   18 cycles
            NFock= 18  Conv=0.40D-08     -V/T= 2.0047
 DoSCS=F DFT=T ScalE2(SS,OS)=  1.000000  1.000000
 ExpMin= 9.52D-02 ExpMax= 2.70D+04 ExpMxC= 9.22D+02 IAcc=3 IRadAn=         5 AccDes= 0.00D+00
 HarFok:  IExCor=  205 AccDes= 0.00D+00 IRadAn=         5 IDoV=-2 UseB2=F ITyADJ=14
 ICtDFT= 12500011 ScaDFX=  1.000000  1.000000  1.000000  1.000000
 Range of M.O.s used for correlation:    22   483
 NBasis=   483 NAE=    76 NBE=    76 NFC=    21 NFV=     0
 NROrb=    462 NOA=    55 NOB=    55 NVA=   407 NVB=   407

 **** Warning!!: The largest alpha MO coefficient is  0.49459376D+02

 Would need an additional         17874700000 words for in-memory AO integral storage.
 Orbital symmetries:
       Occupied  (A) (A) (A) (A) (A) (A) (A) (A) (A) (A) (A) (A)
                 (A) (A) (A) (A) (A) (A) (A) (A) (A) (A) (A) (A)
                 (A) (A) (A) (A) (A) (A) (A) (A) (A) (A) (A) (A)
                 (A) (A) (A) (A) (A) (A) (A) (A) (A) (A) (A) (A)
                 (A) (A) (A) (A) (A) (A) (A) (A) (A) (A) (A) (A)
                 (A) (A) (A) (A) (A) (A) (A) (A) (A) (A) (A) (A)
                 (A) (A) (A) (A)
       Virtual   (A) (A) (A) (A) (A) (A) (A) (A) (A) (A) (A) (A)
                 (A) (A) (A) (A) (A) (A) (A) (A) (A) (A) (A) (A)
                 (A) (A) (A) (A) (A) (A) (A) (A) (A) (A) (A) (A)
                 (A) (A) (A) (A) (A) (A) (A) (A) (A) (A) (A) (A)
                 (A) (A) (A) (A) (A) (A) (A) (A) (A) (A) (A) (A)
                 (A) (A) (A) (A) (A) (A) (A) (A) (A) (A) (A) (A)
                 (A) (A) (A) (A) (A) (A) (A) (A) (A) (A) (A) (A)
                 (A) (A) (A) (A) (A) (A) (A) (A) (A) (A) (A) (A)
                 (A) (A) (A) (A) (A) (A) (A) (A) (A) (A) (A) (A)
                 (A) (A) (A) (A) (A) (A) (A) (A) (A) (A) (A) (A)
                 (A) (A) (A) (A) (A) (A) (A) (A) (A) (A) (A) (A)
                 (A) (A) (A) (A) (A) (A) (A) (A) (A) (A) (A) (A)
                 (A) (A) (A) (A) (A) (A) (A) (A) (A) (A) (A) (A)
                 (A) (A) (A) (A) (A) (A) (A) (A) (A) (A) (A) (A)
                 (A) (A) (A) (A) (A) (A) (A) (A) (A) (A) (A) (A)
                 (A) (A) (A) (A) (A) (A) (A) (A) (A) (A) (A) (A)
                 (A) (A) (A) (A) (A) (A) (A) (A) (A) (A) (A) (A)
                 (A) (A) (A) (A) (A) (A) (A) (A) (A) (A) (A) (A)
                 (A) (A) (A) (A) (A) (A) (A) (A) (A) (A) (A) (A)
                 (A) (A) (A) (A) (A) (A) (A) (A) (A) (A) (A) (A)
                 (A) (A) (A) (A) (A) (A) (A) (A) (A) (A) (A) (A)
                 (A) (A) (A) (A) (A) (A) (A) (A) (A) (A) (A) (A)
                 (A) (A) (A) (A) (A) (A) (A) (A) (A) (A) (A) (A)
                 (A) (A) (A) (A) (A) (A) (A) (A) (A) (A) (A) (A)
                 (A) (A) (A) (A) (A) (A) (A) (A) (A) (A) (A) (A)
                 (A) (A) (A) (A) (A) (A) (A) (A) (A) (A) (A) (A)
                 (A) (A) (A) (A) (A) (A) (A) (A) (A) (A) (A) (A)
                 (A) (A) (A) (A) (A) (A) (A) (A) (A) (A) (A) (A)
                 (A) (A) (A) (A) (A) (A) (A) (A) (A) (A) (A) (A)
                 (A) (A) (A) (A) (A) (A) (A) (A) (A) (A) (A) (A)
                 (A) (A) (A) (A) (A) (A) (A) (A) (A) (A) (A) (A)
                 (A) (A) (A) (A) (A) (A) (A) (A) (A) (A) (A) (A)
                 (A) (A) (A) (A) (A) (A) (A) (A) (A) (A) (A) (A)
                 (A) (A) (A) (A) (A) (A) (A) (A) (A) (A) (A)
    80 initial guesses have been made.
 Convergence on wavefunction:    0.001000000000000
 Iteration     1 Dimension    80 NMult     0 NNew     80
 CISAX will form    80 AO SS matrices at one time.
 New state      1 was old state      4
 New state      2 was old state      1
 New state      3 was old state     11
 New state      4 was old state      3
 New state      5 was old state      6
 New state      6 was old state      9
 New state      7 was old state     13
 New state      9 was old state      7
 New state     10 was old state      2
 New state     11 was old state     10
 New state     13 was old state     17
 New state     14 was old state     19
 New state     16 was old state     14
 New state     17 was old state     22
 New state     18 was old state     21
 New state     19 was old state     20
 New state     20 was old state     23
 Iteration     2 Dimension   120 NMult    80 NNew     40
 New state      4 was old state      6
 New state      5 was old state      4
 New state      6 was old state      5
 New state      7 was old state      8
 New state      8 was old state      7
 New state      9 was old state     14
 New state     11 was old state      9
 New state     13 was old state     11
 New state     14 was old state     13
 New state     18 was old state     23
 New state     19 was old state     18
 New state     20 was old state     21
 Iteration     3 Dimension   160 NMult   120 NNew     40
 Iteration     4 Dimension   200 NMult   160 NNew     40
 Iteration     5 Dimension   230 NMult   200 NNew     30
 Iteration     6 Dimension   236 NMult   230 NNew      6
 ***********************************************************************
 Excited states from <AA,BB:AA,BB> singles matrix:
 ***********************************************************************
 
 Ground to excited state transition densities written to RWF  633
 Ground to excited state transition electric dipole moments (Au):
       state          X           Y           Z        Dip. S.      Osc.
         1        -0.0778      0.0429      0.0189      0.0082      0.0009
         2         0.0991     -0.2035     -0.0119      0.0514      0.0062
         3         0.2831     -0.2117      0.0792      0.1312      0.0167
         4         0.8608     -0.7566      0.2470      1.3744      0.1802
         5        -0.1454     -0.0861     -0.0699      0.0334      0.0044
         6        -0.4326      0.1447      0.0287      0.2089      0.0290
         7         0.8200     -0.2519     -0.0474      0.7382      0.1057
         8        -0.5685      0.6926      0.3431      0.9205      0.1344
         9         0.6287     -0.7456     -0.2925      1.0367      0.1536
        10        -0.9204      0.3055      0.1339      0.9584      0.1451
        11         0.1565     -0.3387     -0.0979      0.1488      0.0226
        12         0.4764     -0.1582     -0.0513      0.2546      0.0387
        13         0.4070     -0.2149     -0.0390      0.2134      0.0330
        14        -0.0380      0.0065     -0.0402      0.0031      0.0005
        15        -0.1991     -0.3568     -0.0188      0.1673      0.0275
        16        -0.0372     -0.3729      0.0719      0.1456      0.0242
        17         0.2411      0.1058      0.0340      0.0705      0.0118
        18         0.1644      0.1619     -0.0319      0.0542      0.0091
        19         1.0206     -0.1173     -0.0791      1.0617      0.1801
        20        -0.0576     -0.1676      0.0289      0.0322      0.0055
 Ground to excited state transition velocity dipole moments (Au):
       state          X           Y           Z        Dip. S.      Osc.
         1         0.0137     -0.0074     -0.0039      0.0003      0.0010
         2        -0.0183      0.0371      0.0023      0.0017      0.0063
         3        -0.0503      0.0390     -0.0200      0.0045      0.0156
         4        -0.1613      0.1459     -0.0478      0.0496      0.1681
         5         0.0260      0.0168      0.0138      0.0011      0.0038
         6         0.0871     -0.0279     -0.0061      0.0084      0.0269
         7        -0.1704      0.0530      0.0102      0.0319      0.0992
         8         0.1266     -0.1478     -0.0736      0.0433      0.1318
         9        -0.1416      0.1607      0.0635      0.0499      0.1496
        10         0.2020     -0.0631     -0.0291      0.0456      0.1339
        11        -0.0364      0.0760      0.0221      0.0076      0.0222
        12        -0.1058      0.0331      0.0113      0.0124      0.0363
        13        -0.0929      0.0500      0.0083      0.0112      0.0322
        14         0.0088     -0.0051      0.0084      0.0002      0.0005
        15         0.0477      0.0789      0.0030      0.0085      0.0230
        16         0.0108      0.0853     -0.0173      0.0077      0.0206
        17        -0.0598     -0.0272     -0.0088      0.0044      0.0116
        18        -0.0405     -0.0366      0.0081      0.0030      0.0080
        19        -0.2521      0.0285      0.0216      0.0648      0.1699
        20         0.0150      0.0425     -0.0083      0.0021      0.0054
 Ground to excited state transition magnetic dipole moments (Au):
       state          X           Y           Z
         1        -0.3515     -0.3280     -0.0781
         2         0.0713      0.1724      0.4353
         3         0.2470     -0.4223      0.4735
         4        -0.1895      0.6229      1.6606
         5         0.0433      0.1786      0.0654
         6         0.3573     -0.0567      0.0517
         7        -0.1251      0.0691      0.0438
         8        -0.0239     -0.3890      1.0809
         9        -0.1364      0.2595     -1.3303
        10         0.0666     -0.2213      0.9943
        11        -0.0549      0.1455     -0.2558
        12        -0.0754      0.1492     -0.4320
        13         0.2679      0.0432     -0.0420
        14        -0.4452      0.0472     -0.4201
        15         0.1168      0.2762      0.6671
        16        -0.0121      0.0260      0.9393
        17         0.2288     -0.2667     -0.2998
        18        -0.0566     -0.1160     -0.5201
        19        -0.2045     -0.8061     -1.0016
        20         0.1289     -0.3048     -0.1726
 Ground to excited state transition velocity quadrupole moments (Au):
       state          XX          YY          ZZ          XY          XZ          YZ
         1        -0.1334     -0.0092      0.0051      0.0692      0.0697      0.0057
         2        -0.1584      0.0358     -0.0015     -0.1261     -0.0733      0.0016
         3        -0.5109      0.1009      0.0238      0.1317     -0.0642     -0.0191
         4        -1.7926      0.3547      0.0452      0.4005     -0.0738     -0.1099
         5         0.1273     -0.0383      0.0021     -0.2904     -0.0958      0.0443
         6         0.2482     -0.0678     -0.0360     -0.0007      0.1103      0.0542
         7        -0.8726      0.1426      0.1141     -0.0810     -0.1114      0.0368
         8        -1.4968     -0.0428     -0.0581      1.5884      0.6324     -0.1588
         9         1.4968      0.1466      0.0031     -1.5060     -0.6567      0.0862
        10        -1.9054     -0.0707     -0.0208      0.4337      0.2380     -0.1741
        11         0.1331      0.0884     -0.0083     -0.5374     -0.2555      0.0061
        12         0.7566      0.0534      0.0106     -0.1825     -0.1189      0.0717
        13         0.1560      0.1000      0.0044     -0.1548     -0.1134      0.0856
        14         0.8219     -0.0605     -0.0092     -0.0192     -0.0533     -0.0259
        15         0.6699     -0.0377      0.0407      0.3028      0.0196     -0.0044
        16         0.1913     -0.0915      0.0444      0.6867      0.0958      0.0289
        17        -0.2501     -0.0708      0.0261      0.5133      0.1203      0.0212
        18        -0.1492      0.0676     -0.0216     -0.3413     -0.0657     -0.0031
        19        -0.0991      0.0120      0.0637      0.3785     -0.2500      0.0097
        20         0.3603      0.0409      0.0110     -0.2314      0.0286      0.0111
 <0|del|b> * <b|rxdel|0> + <0|del|b> * <b|delr+rdel|0>
 Rotatory Strengths (R) in cgs (10**-40 erg-esu-cm/Gauss)
       state          XX          YY          ZZ    R(velocity)    E-M Angle
         1         6.1652     -8.5959     -6.1341     -2.8549      105.40
         2        19.1147     -0.0624      4.6694      7.9072       71.88
         3       -48.3362    -33.9305    -59.9537    -47.4068      147.65
         4         5.5347    -21.5905    167.1172     50.3538       83.93
         5         2.6479     12.7871      2.4208      5.9520       40.50
         6         7.4037     60.2927     42.2559     36.6508       14.80
         7        15.1377     26.8668     41.7445     27.9164       17.90
         8       -73.2848     22.9117    -30.5078    -26.9603       96.01
         9       -52.5081     29.0394    -51.3705    -24.9464       94.43
        10       -19.5543    -59.1962     74.0376     -1.5710       90.40
        11        20.1537     12.4177     -9.5435      7.6760       73.49
        12         3.0122     -3.7584     25.7010      8.3182       81.03
        13         9.4590    -48.6930    -31.2062    -23.4801      142.58
        14        -6.1724    -11.0735     -5.4068     -7.5509      161.80
        15        33.2923      9.2828     41.7902     28.1218       64.17
        16       -48.4616     -5.9560     14.1195    -13.4327       99.91
        17        12.1281    -10.9392    -11.8423     -3.5512       97.12
        18        -7.1639      1.3624     12.3411      2.1799       85.47
        19       -40.7200     26.8069     33.2625      6.4498       88.80
        20       -14.8642      2.2191    -13.7041     -8.7831      124.06
 1/2[<0|r|b>*<b|rxdel|0> + (<0|rxdel|b>*<b|r|0>)*]
 Rotatory Strengths (R) in cgs (10**-40 erg-esu-cm/Gauss)
       state          XX          YY          ZZ     R(length)
         1       -19.3276      9.9511      1.0456     -2.7769
         2        -4.9966     24.8111      3.6488      7.8211
         3       -49.4462    -63.2167    -26.5099    -46.3909
         4       115.3426    333.2653   -290.0456     52.8541
         5         4.4496     10.8715      3.2298      6.1836
         6       109.2972      5.8031     -1.0507     38.0165
         7        72.5389     12.3157      1.4685     28.7744
         8        -9.6179    190.5285   -262.2498    -27.1131
         9        60.6182    136.8322   -275.1380    -25.8959
        10        43.3461     47.8170    -94.1527     -0.9965
        11         6.0796     34.8533    -17.6998      7.7443
        12        25.4100     16.6890    -15.6748      8.8081
        13       -77.1162      6.5608     -1.1580    -23.9045
        14       -11.9494     -0.2162    -11.9287     -8.0314
        15        16.4376     69.6927      8.8804     31.6702
        16        -0.3198      6.8460    -47.7658    -13.7465
        17       -38.9971     19.9557      7.2142     -3.9424
        18         6.5809     13.2753    -11.7157      2.7135
        19       147.5906    -66.8539    -56.0526      8.2280
        20         5.2486    -36.1164      3.5306     -9.1124
  1/2[<0|del|b>*<b|r|0> + (<0|r|b>*<b|del|0>)*] (Au)
       state          X           Y           Z        Dip. S.   Osc.(frdel)
         1        -0.0011     -0.0003     -0.0001      0.0015      0.0010
         2        -0.0018     -0.0075     -0.0000      0.0094      0.0063
         3        -0.0142     -0.0083     -0.0016      0.0241      0.0161
         4        -0.1388     -0.1104     -0.0118      0.2610      0.1740
         5        -0.0038     -0.0014     -0.0010      0.0062      0.0041
         6        -0.0377     -0.0040     -0.0002      0.0419      0.0279
         7        -0.1397     -0.0134     -0.0005      0.1536      0.1024
         8        -0.0720     -0.1023     -0.0252      0.1996      0.1330
         9        -0.0890     -0.1198     -0.0186      0.2274      0.1516
        10        -0.1859     -0.0193     -0.0039      0.2091      0.1394
        11        -0.0057     -0.0257     -0.0022      0.0336      0.0224
        12        -0.0504     -0.0052     -0.0006      0.0562      0.0375
        13        -0.0378     -0.0107     -0.0003      0.0489      0.0326
        14        -0.0003     -0.0000     -0.0003      0.0007      0.0005
        15        -0.0095     -0.0282     -0.0001      0.0377      0.0251
        16        -0.0004     -0.0318     -0.0012      0.0335      0.0223
        17        -0.0144     -0.0029     -0.0003      0.0176      0.0117
        18        -0.0067     -0.0059     -0.0003      0.0128      0.0086
        19        -0.2573     -0.0033     -0.0017      0.2624      0.1749
        20        -0.0009     -0.0071     -0.0002      0.0082      0.0055

 Excitation energies and oscillator strengths:
 
 Excited State   1:      Singlet-A      4.6678 eV  265.62 nm  f=0.0009  <S**2>=0.000
      73 -> 77        -0.32472
      74 -> 77         0.44906
      75 -> 77         0.40281
 This state for optimization and/or second-order correction.
 Total Energy, E(TD-HF/TD-KS) =  -1030.36010302    
 Copying the excited state density for this state as the 1-particle RhoCI density.
 
 Excited State   2:      Singlet-A      4.9449 eV  250.73 nm  f=0.0062  <S**2>=0.000
      76 -> 77         0.70103
 
 Excited State   3:      Singlet-A      5.1915 eV  238.82 nm  f=0.0167  <S**2>=0.000
      72 -> 78         0.59312
      73 -> 78        -0.22152
      75 -> 78        -0.12608
      76 -> 78         0.20510
 
 Excited State   4:      Singlet-A      5.3525 eV  231.64 nm  f=0.1802  <S**2>=0.000
      72 -> 78        -0.17229
      76 -> 78         0.65317
      76 -> 79        -0.10422
 
 Excited State   5:      Singlet-A      5.4171 eV  228.88 nm  f=0.0044  <S**2>=0.000
      72 -> 77         0.11143
      73 -> 77         0.24365
      74 -> 77        -0.30265
      75 -> 77         0.56974
 
 Excited State   6:      Singlet-A      5.6659 eV  218.83 nm  f=0.0290  <S**2>=0.000
      72 -> 78         0.19158
      73 -> 78         0.10587
      74 -> 78        -0.12536
      75 -> 78         0.64666
 
 Excited State   7:      Singlet-A      5.8420 eV  212.23 nm  f=0.1057  <S**2>=0.000
      76 -> 79         0.68285
 
 Excited State   8:      Singlet-A      5.9586 eV  208.08 nm  f=0.1344  <S**2>=0.000
      70 -> 77         0.31918
      71 -> 77        -0.31425
      73 -> 77         0.43475
      74 -> 77         0.29326
 
 Excited State   9:      Singlet-A      6.0485 eV  204.98 nm  f=0.1536  <S**2>=0.000
      70 -> 77         0.51516
      71 -> 77        -0.14324
      72 -> 77        -0.14776
      73 -> 77        -0.26432
      74 -> 77        -0.29599
      74 -> 78        -0.12324
 
 Excited State  10:      Singlet-A      6.1811 eV  200.59 nm  f=0.1451  <S**2>=0.000
      70 -> 77         0.32046
      71 -> 77         0.48922
      72 -> 77         0.33875
      74 -> 77         0.10101
 
 Excited State  11:      Singlet-A      6.1921 eV  200.23 nm  f=0.0226  <S**2>=0.000
      74 -> 78         0.66308
      75 -> 78         0.15592
 
 Excited State  12:      Singlet-A      6.2026 eV  199.89 nm  f=0.0387  <S**2>=0.000
      71 -> 77        -0.32759
      72 -> 77         0.57488
      73 -> 77        -0.21472
 
 Excited State  13:      Singlet-A      6.3076 eV  196.56 nm  f=0.0330  <S**2>=0.000
      70 -> 78         0.21131
      71 -> 78        -0.15373
      72 -> 78         0.16669
      73 -> 78         0.59198
      74 -> 78         0.10514
      75 -> 78        -0.15067
 
 Excited State  14:      Singlet-A      6.5260 eV  189.98 nm  f=0.0005  <S**2>=0.000
      68 -> 78         0.11444
      70 -> 78        -0.40594
      71 -> 78         0.46623
      72 -> 78         0.11216
      73 -> 78         0.24724
 
 Excited State  15:      Singlet-A      6.7069 eV  184.86 nm  f=0.0275  <S**2>=0.000
      69 -> 77         0.15859
      69 -> 78         0.38903
      70 -> 78         0.42246
      71 -> 78         0.31077
      75 -> 79        -0.13756
 
 Excited State  16:      Singlet-A      6.7752 eV  183.00 nm  f=0.0242  <S**2>=0.000
      69 -> 77         0.26263
      69 -> 78         0.46371
      70 -> 78        -0.25893
      71 -> 78        -0.33615
      71 -> 79         0.11566
 
 Excited State  17:      Singlet-A      6.8507 eV  180.98 nm  f=0.0118  <S**2>=0.000
      68 -> 77        -0.10545
      73 -> 79        -0.12300
      74 -> 79         0.55159
      75 -> 79         0.33601
 
 Excited State  18:      Singlet-A      6.8720 eV  180.42 nm  f=0.0091  <S**2>=0.000
      69 -> 77         0.62446
      69 -> 78        -0.29403
      74 -> 79        -0.10409
 
 Excited State  19:      Singlet-A      6.9221 eV  179.11 nm  f=0.1801  <S**2>=0.000
      72 -> 79        -0.28391
      74 -> 79        -0.36040
      75 -> 79         0.46644
      76 -> 80        -0.10523
 
 Excited State  20:      Singlet-A      6.9939 eV  177.28 nm  f=0.0055  <S**2>=0.000
      65 -> 77        -0.11079
      66 -> 77         0.16653
      67 -> 77         0.40530
      68 -> 77        -0.40321
      72 -> 79         0.23647
      74 -> 79        -0.13471
 SavETr:  write IOETrn=   770 NScale= 10 NData=  16 NLR=1 NState=   20 LETran=     370.

 **********************************************************************

            Population analysis using the SCF density.

 **********************************************************************

 Orbital symmetries:
       Occupied  (A) (A) (A) (A) (A) (A) (A) (A) (A) (A) (A) (A)
                 (A) (A) (A) (A) (A) (A) (A) (A) (A) (A) (A) (A)
                 (A) (A) (A) (A) (A) (A) (A) (A) (A) (A) (A) (A)
                 (A) (A) (A) (A) (A) (A) (A) (A) (A) (A) (A) (A)
                 (A) (A) (A) (A) (A) (A) (A) (A) (A) (A) (A) (A)
                 (A) (A) (A) (A) (A) (A) (A) (A) (A) (A) (A) (A)
                 (A) (A) (A) (A)
       Virtual   (A) (A) (A) (A) (A) (A) (A) (A) (A) (A) (A) (A)
                 (A) (A) (A) (A) (A) (A) (A) (A) (A) (A) (A) (A)
                 (A) (A) (A) (A) (A) (A) (A) (A) (A) (A) (A) (A)
                 (A) (A) (A) (A) (A) (A) (A) (A) (A) (A) (A) (A)
                 (A) (A) (A) (A) (A) (A) (A) (A) (A) (A) (A) (A)
                 (A) (A) (A) (A) (A) (A) (A) (A) (A) (A) (A) (A)
                 (A) (A) (A) (A) (A) (A) (A) (A) (A) (A) (A) (A)
                 (A) (A) (A) (A) (A) (A) (A) (A) (A) (A) (A) (A)
                 (A) (A) (A) (A) (A) (A) (A) (A) (A) (A) (A) (A)
                 (A) (A) (A) (A) (A) (A) (A) (A) (A) (A) (A) (A)
                 (A) (A) (A) (A) (A) (A) (A) (A) (A) (A) (A) (A)
                 (A) (A) (A) (A) (A) (A) (A) (A) (A) (A) (A) (A)
                 (A) (A) (A) (A) (A) (A) (A) (A) (A) (A) (A) (A)
                 (A) (A) (A) (A) (A) (A) (A) (A) (A) (A) (A) (A)
                 (A) (A) (A) (A) (A) (A) (A) (A) (A) (A) (A) (A)
                 (A) (A) (A) (A) (A) (A) (A) (A) (A) (A) (A) (A)
                 (A) (A) (A) (A) (A) (A) (A) (A) (A) (A) (A) (A)
                 (A) (A) (A) (A) (A) (A) (A) (A) (A) (A) (A) (A)
                 (A) (A) (A) (A) (A) (A) (A) (A) (A) (A) (A) (A)
                 (A) (A) (A) (A) (A) (A) (A) (A) (A) (A) (A) (A)
                 (A) (A) (A) (A) (A) (A) (A) (A) (A) (A) (A) (A)
                 (A) (A) (A) (A) (A) (A) (A) (A) (A) (A) (A) (A)
                 (A) (A) (A) (A) (A) (A) (A) (A) (A) (A) (A) (A)
                 (A) (A) (A) (A) (A) (A) (A) (A) (A) (A) (A) (A)
                 (A) (A) (A) (A) (A) (A) (A) (A) (A) (A) (A) (A)
                 (A) (A) (A) (A) (A) (A) (A) (A) (A) (A) (A) (A)
                 (A) (A) (A) (A) (A) (A) (A) (A) (A) (A) (A) (A)
                 (A) (A) (A) (A) (A) (A) (A) (A) (A) (A) (A) (A)
                 (A) (A) (A) (A) (A) (A) (A) (A) (A) (A) (A) (A)
                 (A) (A) (A) (A) (A) (A) (A) (A) (A) (A) (A) (A)
                 (A) (A) (A) (A) (A) (A) (A) (A) (A) (A) (A) (A)
                 (A) (A) (A) (A) (A) (A) (A) (A) (A) (A) (A) (A)
                 (A) (A) (A) (A) (A) (A) (A) (A) (A) (A) (A) (A)
                 (A) (A) (A) (A) (A) (A) (A) (A) (A) (A) (A)
 The electronic state is 1-A.
 Alpha  occ. eigenvalues --  -19.26711 -19.25980 -19.25813 -19.24800 -19.19763
 Alpha  occ. eigenvalues --  -19.19316 -10.35974 -10.35615 -10.35466 -10.31967
 Alpha  occ. eigenvalues --  -10.31123 -10.30871 -10.28099 -10.26786 -10.26510
 Alpha  occ. eigenvalues --  -10.26410 -10.25527 -10.25168 -10.24958 -10.24301
 Alpha  occ. eigenvalues --  -10.24193  -1.15005  -1.14146  -1.13601  -1.09098
 Alpha  occ. eigenvalues --   -1.05691  -1.05120  -0.90841  -0.86852  -0.84206
 Alpha  occ. eigenvalues --   -0.80699  -0.78576  -0.76459  -0.75377  -0.71109
 Alpha  occ. eigenvalues --   -0.69322  -0.66895  -0.62322  -0.61366  -0.60521
 Alpha  occ. eigenvalues --   -0.59187  -0.57544  -0.56853  -0.55849  -0.53275
 Alpha  occ. eigenvalues --   -0.52363  -0.50635  -0.50398  -0.49648  -0.48887
 Alpha  occ. eigenvalues --   -0.48324  -0.47203  -0.45800  -0.45426  -0.45176
 Alpha  occ. eigenvalues --   -0.44650  -0.44030  -0.43336  -0.42755  -0.41357
 Alpha  occ. eigenvalues --   -0.40499  -0.40051  -0.39500  -0.38694  -0.38411
 Alpha  occ. eigenvalues --   -0.38136  -0.36851  -0.35540  -0.32621  -0.32281
 Alpha  occ. eigenvalues --   -0.31924  -0.30363  -0.29928  -0.29274  -0.28684
 Alpha  occ. eigenvalues --   -0.26396
 Alpha virt. eigenvalues --   -0.05852  -0.04412  -0.00916   0.03486   0.04369
 Alpha virt. eigenvalues --    0.05220   0.05652   0.06254   0.07279   0.07596
 Alpha virt. eigenvalues --    0.07915   0.08301   0.09380   0.09477   0.10253
 Alpha virt. eigenvalues --    0.10610   0.11073   0.11289   0.11956   0.12117
 Alpha virt. eigenvalues --    0.12656   0.13277   0.13523   0.14234   0.14520
 Alpha virt. eigenvalues --    0.15685   0.16271   0.17449   0.17654   0.18736
 Alpha virt. eigenvalues --    0.19037   0.19691   0.20187   0.20931   0.21586
 Alpha virt. eigenvalues --    0.22266   0.22957   0.23372   0.23775   0.24051
 Alpha virt. eigenvalues --    0.24420   0.24557   0.25748   0.26194   0.26747
 Alpha virt. eigenvalues --    0.26786   0.27803   0.28031   0.29386   0.29493
 Alpha virt. eigenvalues --    0.30269   0.30815   0.31471   0.32006   0.32395
 Alpha virt. eigenvalues --    0.32845   0.33153   0.34109   0.34580   0.35599
 Alpha virt. eigenvalues --    0.35899   0.36335   0.36649   0.36978   0.37964
 Alpha virt. eigenvalues --    0.38607   0.39170   0.39554   0.39962   0.41065
 Alpha virt. eigenvalues --    0.41453   0.41984   0.42222   0.42250   0.42661
 Alpha virt. eigenvalues --    0.43387   0.43623   0.43881   0.44387   0.44585
 Alpha virt. eigenvalues --    0.44936   0.45841   0.45995   0.46308   0.46831
 Alpha virt. eigenvalues --    0.47341   0.47508   0.47842   0.48330   0.48861
 Alpha virt. eigenvalues --    0.50068   0.50379   0.50948   0.51456   0.51976
 Alpha virt. eigenvalues --    0.52449   0.52881   0.53759   0.54861   0.55329
 Alpha virt. eigenvalues --    0.56517   0.56731   0.57672   0.58807   0.59780
 Alpha virt. eigenvalues --    0.61161   0.61770   0.62896   0.63362   0.64084
 Alpha virt. eigenvalues --    0.64578   0.65148   0.65715   0.66699   0.67541
 Alpha virt. eigenvalues --    0.68256   0.69382   0.69827   0.70588   0.71254
 Alpha virt. eigenvalues --    0.71694   0.73162   0.74551   0.74903   0.76324
 Alpha virt. eigenvalues --    0.77819   0.79336   0.79585   0.80421   0.81317
 Alpha virt. eigenvalues --    0.83637   0.85917   0.87541   0.88552   0.92233
 Alpha virt. eigenvalues --    0.92904   0.97528   0.99348   1.00544   1.01534
 Alpha virt. eigenvalues --    1.03581   1.14050   1.19761   1.21306   1.22968
 Alpha virt. eigenvalues --    1.23627   1.25092   1.27792   1.27908   1.28378
 Alpha virt. eigenvalues --    1.28860   1.29289   1.29871   1.30431   1.30984
 Alpha virt. eigenvalues --    1.31888   1.32305   1.32414   1.33547   1.33933
 Alpha virt. eigenvalues --    1.34587   1.35024   1.36632   1.36897   1.37325
 Alpha virt. eigenvalues --    1.37830   1.39318   1.40033   1.40222   1.40796
 Alpha virt. eigenvalues --    1.41524   1.43054   1.43504   1.43981   1.44802
 Alpha virt. eigenvalues --    1.45657   1.46063   1.46273   1.47679   1.48480
 Alpha virt. eigenvalues --    1.49161   1.49295   1.49889   1.50480   1.51073
 Alpha virt. eigenvalues --    1.51575   1.51847   1.52267   1.52779   1.53904
 Alpha virt. eigenvalues --    1.54658   1.55050   1.55761   1.55943   1.56232
 Alpha virt. eigenvalues --    1.57757   1.57847   1.58435   1.59427   1.60610
 Alpha virt. eigenvalues --    1.61098   1.61454   1.63006   1.63507   1.63732
 Alpha virt. eigenvalues --    1.63942   1.66325   1.68431   1.68944   1.70269
 Alpha virt. eigenvalues --    1.72388   1.72878   1.74939   1.75114   1.76873
 Alpha virt. eigenvalues --    1.76927   1.77520   1.78093   1.78596   1.78892
 Alpha virt. eigenvalues --    1.79517   1.79753   1.80871   1.82400   1.82739
 Alpha virt. eigenvalues --    1.83777   1.84882   1.85497   1.88518   1.90166
 Alpha virt. eigenvalues --    1.91142   1.92553   1.94277   1.94626   1.95316
 Alpha virt. eigenvalues --    1.96165   1.97765   1.98748   1.99564   2.00777
 Alpha virt. eigenvalues --    2.01227   2.02416   2.04320   2.05529   2.05884
 Alpha virt. eigenvalues --    2.06606   2.08430   2.09176   2.12084   2.12225
 Alpha virt. eigenvalues --    2.13697   2.14909   2.16573   2.17242   2.17868
 Alpha virt. eigenvalues --    2.19428   2.20063   2.21013   2.23201   2.24451
 Alpha virt. eigenvalues --    2.24835   2.26190   2.27063   2.27920   2.31190
 Alpha virt. eigenvalues --    2.32332   2.32605   2.33330   2.34930   2.35635
 Alpha virt. eigenvalues --    2.37133   2.39486   2.39580   2.40107   2.40376
 Alpha virt. eigenvalues --    2.40648   2.43814   2.44945   2.45445   2.47264
 Alpha virt. eigenvalues --    2.47596   2.49180   2.51928   2.51947   2.53536
 Alpha virt. eigenvalues --    2.54758   2.55064   2.56775   2.57952   2.58655
 Alpha virt. eigenvalues --    2.60471   2.61865   2.62135   2.63189   2.63662
 Alpha virt. eigenvalues --    2.64913   2.65722   2.66260   2.67350   2.67852
 Alpha virt. eigenvalues --    2.69509   2.69960   2.70798   2.71310   2.71527
 Alpha virt. eigenvalues --    2.72852   2.73198   2.74646   2.75105   2.76350
 Alpha virt. eigenvalues --    2.76533   2.77026   2.78700   2.79149   2.80076
 Alpha virt. eigenvalues --    2.80832   2.82649   2.84112   2.84312   2.85808
 Alpha virt. eigenvalues --    2.87301   2.87428   2.88568   2.93905   2.95048
 Alpha virt. eigenvalues --    2.95896   2.96635   2.97881   2.98563   2.99904
 Alpha virt. eigenvalues --    3.00149   3.00912   3.01862   3.03967   3.04474
 Alpha virt. eigenvalues --    3.05692   3.06957   3.07882   3.10042   3.10162
 Alpha virt. eigenvalues --    3.11245   3.12623   3.14461   3.16003   3.17086
 Alpha virt. eigenvalues --    3.19511   3.21489   3.21879   3.22606   3.23668
 Alpha virt. eigenvalues --    3.23911   3.26159   3.26899   3.27694   3.27960
 Alpha virt. eigenvalues --    3.29532   3.30508   3.30899   3.31557   3.31960
 Alpha virt. eigenvalues --    3.33387   3.35958   3.37955   3.39167   3.39940
 Alpha virt. eigenvalues --    3.41501   3.42282   3.43851   3.45340   3.48224
 Alpha virt. eigenvalues --    3.50778   3.52899   3.58380   3.60048   3.61947
 Alpha virt. eigenvalues --    3.62796   3.90800   3.95119   4.01751   4.02771
 Alpha virt. eigenvalues --    4.12958   4.13153   4.16655   4.22584   4.30583
 Alpha virt. eigenvalues --    4.33161  21.67582  21.74927  21.83696  21.99128
 Alpha virt. eigenvalues --   22.05446  22.08935  22.14814  22.16965  22.21871
 Alpha virt. eigenvalues --   22.23552  22.27561  22.29275  22.34581  22.41975
 Alpha virt. eigenvalues --   22.44539  43.65132  43.69958  43.76097  43.80963
 Alpha virt. eigenvalues --   43.88517  43.95170
          Condensed to atoms (all electrons):
               1          2          3          4          5          6
     1  C    5.461656   0.119642  -0.175037   0.060016   0.067418  -0.003494
     2  O    0.119642   7.894148   0.313993  -0.091991   0.017320  -0.014836
     3  C   -0.175037   0.313993   5.253247   0.168051  -0.136394   0.058260
     4  C    0.060016  -0.091991   0.168051   6.989685  -0.108485  -0.157454
     5  C    0.067418   0.017320  -0.136394  -0.108485   5.838269   0.196664
     6  C   -0.003494  -0.014836   0.058260  -0.157454   0.196664   5.582060
     7  C   -0.066578   0.015183   0.001576   0.083863  -0.043908   0.115881
     8  C    0.406852  -0.070748  -0.033241  -0.040109   0.215900   0.190051
     9  C   -0.244225   0.040417   0.092581   0.122229  -0.612475  -0.028783
    10  C   -0.328734   0.042945   0.006878  -0.008564   0.085135  -0.078224
    11  O    0.379221  -0.073531   0.006699  -0.006203   0.002682   0.005850
    12  C    0.011839   0.009447  -0.088388  -0.257022   0.023302  -0.074697
    13  O   -0.000199  -0.000122   0.007317  -0.180204   0.036680  -0.012369
    14  O    0.000181   0.000146   0.013142  -0.250224   0.008382  -0.001760
    15  C    0.000015   0.000048  -0.001707  -0.004868  -0.000061   0.000200
    16  O   -0.011438   0.000145  -0.000224  -0.000732   0.005945   0.003606
    17  C   -0.001722   0.000016   0.000128  -0.000099  -0.000594   0.002303
    18  C    0.041961  -0.001382   0.001495  -0.002256  -0.012428   0.017715
    19  C   -0.001877   0.000238  -0.000098   0.000032   0.000145   0.000547
    20  C    0.000172  -0.000059   0.000008  -0.000007  -0.000064   0.000029
    21  H    0.000039  -0.000001  -0.000000   0.000000   0.000001  -0.000002
    22  H   -0.000026  -0.029888   0.451462  -0.085951   0.005837   0.001999
    23  H    0.371884  -0.055529   0.023136  -0.017559  -0.000915   0.004479
    24  H   -0.031235   0.005468   0.003980  -0.002943   0.016579  -0.016116
    25  H   -0.003860  -0.000670   0.015156  -0.047022   0.391444   0.006275
    26  H    0.002535   0.007752  -0.002444   0.002127   0.002218  -0.001221
    27  H    0.001241  -0.000431   0.000525   0.002684  -0.025375   0.380798
    28  H    0.001200   0.000123  -0.000239   0.001352   0.008688  -0.045228
    29  H   -0.000099   0.000000   0.000001  -0.000001   0.000004  -0.000004
    30  H   -0.000608   0.000157   0.000017  -0.000003   0.000009  -0.000005
    31  O    0.000017  -0.000000   0.000000   0.000000  -0.000002  -0.000005
    32  H   -0.000047   0.000001  -0.000000  -0.000000  -0.000000   0.000001
    33  H    0.000003   0.000001   0.000298  -0.005614   0.000138   0.000033
    34  H    0.000003   0.000003  -0.000986   0.003388   0.000073   0.000000
    35  H    0.000001   0.000001   0.000232  -0.000463   0.000052   0.000015
               7          8          9         10         11         12
     1  C   -0.066578   0.406852  -0.244225  -0.328734   0.379221   0.011839
     2  O    0.015183  -0.070748   0.040417   0.042945  -0.073531   0.009447
     3  C    0.001576  -0.033241   0.092581   0.006878   0.006699  -0.088388
     4  C    0.083863  -0.040109   0.122229  -0.008564  -0.006203  -0.257022
     5  C   -0.043908   0.215900  -0.612475   0.085135   0.002682   0.023302
     6  C    0.115881   0.190051  -0.028783  -0.078224   0.005850  -0.074697
     7  C    5.714311  -0.286692   0.146174   0.227030  -0.004408   0.011233
     8  C   -0.286692   6.900402  -0.924781  -0.726095   0.023247   0.006569
     9  C    0.146174  -0.924781   7.404747  -0.078257  -0.090384  -0.022198
    10  C    0.227030  -0.726095  -0.078257   7.041303   0.178254   0.000955
    11  O   -0.004408   0.023247  -0.090384   0.178254   7.891233  -0.000436
    12  C    0.011233   0.006569  -0.022198   0.000955  -0.000436   5.316263
    13  O    0.002536  -0.000437   0.004769  -0.000024   0.000000   0.638450
    14  O   -0.000031  -0.000010  -0.000210  -0.000001  -0.000001   0.393832
    15  C   -0.000063   0.000035  -0.000255   0.000001  -0.000000  -0.052089
    16  O   -0.090656   0.206639  -0.076836   0.051841  -0.013539   0.000051
    17  C    0.002271  -0.076283   0.010705   0.098446   0.005476   0.000001
    18  C   -0.061168   0.309884   0.036175  -0.745611  -0.077088  -0.000136
    19  C   -0.005654  -0.020185   0.002074  -0.120477   0.003375   0.000001
    20  C   -0.000141   0.004864   0.000445  -0.025526  -0.000734  -0.000000
    21  H    0.000023   0.000014  -0.000019  -0.000920   0.000083   0.000000
    22  H   -0.000706   0.000761  -0.002663  -0.000153  -0.000348  -0.017529
    23  H   -0.005842   0.001495  -0.008766   0.010482  -0.047199  -0.002516
    24  H    0.028865  -0.066929   0.361920   0.021443   0.003456   0.000015
    25  H   -0.008736  -0.008539   0.004263  -0.000128  -0.000267  -0.029682
    26  H    0.010996   0.030387  -0.026712   0.319272  -0.043152   0.000181
    27  H   -0.031386   0.013050   0.003106  -0.002109   0.000093  -0.004966
    28  H    0.402945  -0.016344   0.006054  -0.008314  -0.000053   0.000194
    29  H    0.000013  -0.001992   0.000169   0.021374  -0.000379  -0.000000
    30  H   -0.000043  -0.000288   0.000200   0.009071   0.001114  -0.000000
    31  O    0.000970  -0.000457   0.000570   0.007206  -0.000077   0.000000
    32  H   -0.000010  -0.000274   0.000037   0.001435   0.000051   0.000000
    33  H   -0.000005   0.000000  -0.000004   0.000000   0.000000  -0.012258
    34  H   -0.000000   0.000000  -0.000008   0.000000  -0.000000   0.008639
    35  H    0.000003   0.000002  -0.000018  -0.000000   0.000000  -0.011275
              13         14         15         16         17         18
     1  C   -0.000199   0.000181   0.000015  -0.011438  -0.001722   0.041961
     2  O   -0.000122   0.000146   0.000048   0.000145   0.000016  -0.001382
     3  C    0.007317   0.013142  -0.001707  -0.000224   0.000128   0.001495
     4  C   -0.180204  -0.250224  -0.004868  -0.000732  -0.000099  -0.002256
     5  C    0.036680   0.008382  -0.000061   0.005945  -0.000594  -0.012428
     6  C   -0.012369  -0.001760   0.000200   0.003606   0.002303   0.017715
     7  C    0.002536  -0.000031  -0.000063  -0.090656   0.002271  -0.061168
     8  C   -0.000437  -0.000010   0.000035   0.206639  -0.076283   0.309884
     9  C    0.004769  -0.000210  -0.000255  -0.076836   0.010705   0.036175
    10  C   -0.000024  -0.000001   0.000001   0.051841   0.098446  -0.745611
    11  O    0.000000  -0.000001  -0.000000  -0.013539   0.005476  -0.077088
    12  C    0.638450   0.393832  -0.052089   0.000051   0.000001  -0.000136
    13  O    7.893553  -0.106161   0.017100  -0.000000  -0.000000   0.000000
    14  O   -0.106161   8.028636   0.193217  -0.000000  -0.000000  -0.000000
    15  C    0.017100   0.193217   4.821758   0.000000   0.000000  -0.000000
    16  O   -0.000000  -0.000000   0.000000   7.965857   0.312762  -0.209069
    17  C   -0.000000  -0.000000   0.000000   0.312762   4.961825  -0.040679
    18  C    0.000000  -0.000000  -0.000000  -0.209069  -0.040679   6.559918
    19  C    0.000000   0.000000   0.000000   0.016596  -0.113258   0.458489
    20  C   -0.000000  -0.000000  -0.000000  -0.000438   0.009186  -0.010898
    21  H    0.000000   0.000000   0.000000   0.000010  -0.000717  -0.010079
    22  H    0.000403   0.010172  -0.000067  -0.000002   0.000003   0.000014
    23  H    0.000002   0.000008  -0.000004  -0.000787   0.000031   0.001786
    24  H   -0.000065  -0.000013   0.000000   0.014020  -0.002061  -0.001418
    25  H    0.002794   0.000608  -0.000239   0.000554   0.000032   0.000142
    26  H    0.000000   0.000001   0.000000   0.001751   0.011818  -0.037504
    27  H    0.003574   0.000185  -0.000084  -0.000118   0.000074   0.000067
    28  H    0.000017   0.000001  -0.000000   0.001039  -0.001653  -0.001057
    29  H   -0.000000  -0.000000  -0.000000   0.001798  -0.013426   0.009048
    30  H    0.000000   0.000000  -0.000000   0.000032   0.000516   0.021139
    31  O   -0.000000  -0.000000   0.000000  -0.082828   0.670490  -0.132858
    32  H   -0.000000  -0.000000   0.000000   0.000016   0.000370  -0.006301
    33  H    0.003961  -0.032577   0.421593  -0.000000  -0.000000   0.000000
    34  H    0.002337  -0.033935   0.387441  -0.000000  -0.000000  -0.000000
    35  H    0.003890  -0.034857   0.415460   0.000000   0.000000  -0.000000
              19         20         21         22         23         24
     1  C   -0.001877   0.000172   0.000039  -0.000026   0.371884  -0.031235
     2  O    0.000238  -0.000059  -0.000001  -0.029888  -0.055529   0.005468
     3  C   -0.000098   0.000008  -0.000000   0.451462   0.023136   0.003980
     4  C    0.000032  -0.000007   0.000000  -0.085951  -0.017559  -0.002943
     5  C    0.000145  -0.000064   0.000001   0.005837  -0.000915   0.016579
     6  C    0.000547   0.000029  -0.000002   0.001999   0.004479  -0.016116
     7  C   -0.005654  -0.000141   0.000023  -0.000706  -0.005842   0.028865
     8  C   -0.020185   0.004864   0.000014   0.000761   0.001495  -0.066929
     9  C    0.002074   0.000445  -0.000019  -0.002663  -0.008766   0.361920
    10  C   -0.120477  -0.025526  -0.000920  -0.000153   0.010482   0.021443
    11  O    0.003375  -0.000734   0.000083  -0.000348  -0.047199   0.003456
    12  C    0.000001  -0.000000   0.000000  -0.017529  -0.002516   0.000015
    13  O    0.000000  -0.000000   0.000000   0.000403   0.000002  -0.000065
    14  O    0.000000  -0.000000   0.000000   0.010172   0.000008  -0.000013
    15  C    0.000000  -0.000000   0.000000  -0.000067  -0.000004   0.000000
    16  O    0.016596  -0.000438   0.000010  -0.000002  -0.000787   0.014020
    17  C   -0.113258   0.009186  -0.000717   0.000003   0.000031  -0.002061
    18  C    0.458489  -0.010898  -0.010079   0.000014   0.001786  -0.001418
    19  C    5.341395   0.237508  -0.023763  -0.000002   0.000081  -0.000147
    20  C    0.237508   5.002477   0.398018   0.000001   0.000048   0.000007
    21  H   -0.023763   0.398018   0.547985  -0.000000  -0.000001  -0.000000
    22  H   -0.000002   0.000001  -0.000000   0.515437   0.000809   0.000023
    23  H    0.000081   0.000048  -0.000001   0.000809   0.584858  -0.008327
    24  H   -0.000147   0.000007  -0.000000   0.000023  -0.008327   0.467415
    25  H    0.000000   0.000000  -0.000000  -0.000071   0.000678  -0.001124
    26  H   -0.010503  -0.000612  -0.000224   0.000052  -0.000746  -0.000221
    27  H   -0.000005   0.000000  -0.000000   0.000001   0.000053  -0.000622
    28  H   -0.000366  -0.000011   0.000001  -0.000007   0.000014  -0.000292
    29  H    0.338148  -0.043230   0.000038   0.000000  -0.000003   0.000006
    30  H   -0.084847   0.428495  -0.020344  -0.000001  -0.000004  -0.000003
    31  O    0.005093   0.001004   0.000025  -0.000000   0.000012  -0.000318
    32  H   -0.020540   0.390439  -0.031110   0.000000   0.000001  -0.000001
    33  H    0.000000   0.000000  -0.000000   0.000085   0.000000   0.000000
    34  H   -0.000000  -0.000000   0.000000  -0.000116  -0.000000   0.000000
    35  H   -0.000000   0.000000   0.000000   0.000075   0.000000  -0.000000
              25         26         27         28         29         30
     1  C   -0.003860   0.002535   0.001241   0.001200  -0.000099  -0.000608
     2  O   -0.000670   0.007752  -0.000431   0.000123   0.000000   0.000157
     3  C    0.015156  -0.002444   0.000525  -0.000239   0.000001   0.000017
     4  C   -0.047022   0.002127   0.002684   0.001352  -0.000001  -0.000003
     5  C    0.391444   0.002218  -0.025375   0.008688   0.000004   0.000009
     6  C    0.006275  -0.001221   0.380798  -0.045228  -0.000004  -0.000005
     7  C   -0.008736   0.010996  -0.031386   0.402945   0.000013  -0.000043
     8  C   -0.008539   0.030387   0.013050  -0.016344  -0.001992  -0.000288
     9  C    0.004263  -0.026712   0.003106   0.006054   0.000169   0.000200
    10  C   -0.000128   0.319272  -0.002109  -0.008314   0.021374   0.009071
    11  O   -0.000267  -0.043152   0.000093  -0.000053  -0.000379   0.001114
    12  C   -0.029682   0.000181  -0.004966   0.000194  -0.000000  -0.000000
    13  O    0.002794   0.000000   0.003574   0.000017  -0.000000   0.000000
    14  O    0.000608   0.000001   0.000185   0.000001  -0.000000   0.000000
    15  C   -0.000239   0.000000  -0.000084  -0.000000  -0.000000  -0.000000
    16  O    0.000554   0.001751  -0.000118   0.001039   0.001798   0.000032
    17  C    0.000032   0.011818   0.000074  -0.001653  -0.013426   0.000516
    18  C    0.000142  -0.037504   0.000067  -0.001057   0.009048   0.021139
    19  C    0.000000  -0.010503  -0.000005  -0.000366   0.338148  -0.084847
    20  C    0.000000  -0.000612   0.000000  -0.000011  -0.043230   0.428495
    21  H   -0.000000  -0.000224  -0.000000   0.000001   0.000038  -0.020344
    22  H   -0.000071   0.000052   0.000001  -0.000007   0.000000  -0.000001
    23  H    0.000678  -0.000746   0.000053   0.000014  -0.000003  -0.000004
    24  H   -0.001124  -0.000221  -0.000622  -0.000292   0.000006  -0.000003
    25  H    0.478782  -0.000043   0.002250  -0.000389   0.000000   0.000000
    26  H   -0.000043   0.574670  -0.000140   0.000290  -0.000373  -0.000644
    27  H    0.002250  -0.000140   0.493715  -0.002956   0.000000   0.000000
    28  H   -0.000389   0.000290  -0.002956   0.531988   0.000009   0.000005
    29  H    0.000000  -0.000373   0.000000   0.000009   0.508134   0.002465
    30  H    0.000000  -0.000644   0.000000   0.000005   0.002465   0.500837
    31  O   -0.000000  -0.000265  -0.000001  -0.000192   0.017683   0.000011
    32  H   -0.000000   0.000275   0.000000  -0.000000   0.001168  -0.017413
    33  H   -0.000057   0.000000  -0.000000   0.000000   0.000000  -0.000000
    34  H   -0.000003  -0.000000  -0.000003  -0.000000   0.000000  -0.000000
    35  H    0.000040  -0.000000   0.000035  -0.000000   0.000000  -0.000000
              31         32         33         34         35
     1  C    0.000017  -0.000047   0.000003   0.000003   0.000001
     2  O   -0.000000   0.000001   0.000001   0.000003   0.000001
     3  C    0.000000  -0.000000   0.000298  -0.000986   0.000232
     4  C    0.000000  -0.000000  -0.005614   0.003388  -0.000463
     5  C   -0.000002  -0.000000   0.000138   0.000073   0.000052
     6  C   -0.000005   0.000001   0.000033   0.000000   0.000015
     7  C    0.000970  -0.000010  -0.000005  -0.000000   0.000003
     8  C   -0.000457  -0.000274   0.000000   0.000000   0.000002
     9  C    0.000570   0.000037  -0.000004  -0.000008  -0.000018
    10  C    0.007206   0.001435   0.000000   0.000000  -0.000000
    11  O   -0.000077   0.000051   0.000000  -0.000000   0.000000
    12  C    0.000000   0.000000  -0.012258   0.008639  -0.011275
    13  O   -0.000000  -0.000000   0.003961   0.002337   0.003890
    14  O   -0.000000  -0.000000  -0.032577  -0.033935  -0.034857
    15  C    0.000000   0.000000   0.421593   0.387441   0.415460
    16  O   -0.082828   0.000016  -0.000000  -0.000000   0.000000
    17  C    0.670490   0.000370  -0.000000  -0.000000   0.000000
    18  C   -0.132858  -0.006301   0.000000  -0.000000  -0.000000
    19  C    0.005093  -0.020540   0.000000  -0.000000  -0.000000
    20  C    0.001004   0.390439   0.000000  -0.000000   0.000000
    21  H    0.000025  -0.031110  -0.000000   0.000000   0.000000
    22  H   -0.000000   0.000000   0.000085  -0.000116   0.000075
    23  H    0.000012   0.000001   0.000000  -0.000000   0.000000
    24  H   -0.000318  -0.000001   0.000000   0.000000  -0.000000
    25  H   -0.000000  -0.000000  -0.000057  -0.000003   0.000040
    26  H   -0.000265   0.000275   0.000000  -0.000000  -0.000000
    27  H   -0.000001   0.000000  -0.000000  -0.000003   0.000035
    28  H   -0.000192  -0.000000   0.000000  -0.000000  -0.000000
    29  H    0.017683   0.001168   0.000000   0.000000   0.000000
    30  H    0.000011  -0.017413  -0.000000  -0.000000  -0.000000
    31  O    7.798505   0.000054  -0.000000  -0.000000  -0.000000
    32  H    0.000054   0.534849  -0.000000   0.000000  -0.000000
    33  H   -0.000000  -0.000000   0.550141  -0.026199  -0.037480
    34  H   -0.000000   0.000000  -0.026199   0.550668  -0.026944
    35  H   -0.000000  -0.000000  -0.037480  -0.026944   0.556549
 Mulliken charges:
               1
     1  C   -0.056719
     2  O   -0.128007
     3  C    0.020577
     4  C   -0.165649
     5  C    0.017816
     6  C   -0.132570
     7  C   -0.157846
     8  C   -0.036748
     9  C   -0.120039
    10  C    0.000065
    11  O   -0.143035
    12  C    0.152220
    13  O   -0.317801
    14  O   -0.188731
    15  C   -0.197430
    16  O   -0.095995
    17  C    0.164040
    18  C   -0.107903
    19  C   -0.002002
    20  C   -0.390983
    21  H    0.140942
    22  H    0.150395
    23  H    0.148343
    24  H    0.208638
    25  H    0.197812
    26  H    0.160476
    27  H    0.166745
    28  H    0.123178
    29  H    0.159447
    30  H    0.160137
    31  O   -0.284638
    32  H    0.147000
    33  H    0.137940
    34  H    0.135644
    35  H    0.134682
 Sum of Mulliken charges =  -0.00000
 Mulliken charges with hydrogens summed into heavy atoms:
               1
     1  C    0.091624
     2  O   -0.128007
     3  C    0.170972
     4  C   -0.165649
     5  C    0.215628
     6  C    0.034175
     7  C   -0.034669
     8  C   -0.036748
     9  C    0.088599
    10  C    0.160541
    11  O   -0.143035
    12  C    0.152220
    13  O   -0.317801
    14  O   -0.188731
    15  C    0.210836
    16  O   -0.095995
    17  C    0.164040
    18  C   -0.107903
    19  C    0.157445
    20  C    0.057096
    31  O   -0.284638
 Electronic spatial extent (au):  <R**2>=           6880.6680
 Charge=             -0.0000 electrons
 Dipole moment (field-independent basis, Debye):
    X=              2.1107    Y=              4.3125    Z=              1.8061  Tot=              5.1298
 Quadrupole moment (field-independent basis, Debye-Ang):
   XX=           -116.0871   YY=           -130.8937   ZZ=           -114.3543
   XY=             -8.7757   XZ=             -8.0065   YZ=             -1.1175
 Traceless Quadrupole moment (field-independent basis, Debye-Ang):
   XX=              4.3579   YY=            -10.4487   ZZ=              6.0907
   XY=             -8.7757   XZ=             -8.0065   YZ=             -1.1175
 Octapole moment (field-independent basis, Debye-Ang**2):
  XXX=            113.8429  YYY=             29.0289  ZZZ=             -8.6694  XYY=             14.5987
  XXY=            124.6805  XXZ=             46.4765  XZZ=              7.0457  YZZ=             -1.7683
  YYZ=              9.7321  XYZ=              5.6165
 Hexadecapole moment (field-independent basis, Debye-Ang**3):
 XXXX=          -6355.9010 YYYY=          -1367.2515 ZZZZ=           -446.6111 XXXY=           -151.1840
 XXXZ=            -71.7314 YYYX=            -24.7560 YYYZ=             -4.9513 ZZZX=             14.6694
 ZZZY=            -12.0549 XXYY=          -1524.4141 XXZZ=          -1251.1718 YYZZ=           -281.6164
 XXYZ=              2.4641 YYXZ=            -31.8856 ZZXY=             -9.9524
 N-N= 1.723028902296D+03 E-N=-5.855803026295D+03  KE= 1.025696808952D+03
 1\1\ WCSS.PL-BEM-C2\SP\RPBE1PBE TD-FC\TZVP\C15H14O6\LT\30-Mar-2017\0\\
 # PBE1PBE/TZVP TD(nstates=20)\\Plumericin conformation 1a\\0,1\C,0,-0.
 186042,1.044716,-1.148395\O,0,0.720275,1.877431,-0.375123\C,0,1.981031
 ,1.442859,-0.183607\C,0,2.365394,0.152739,-0.216387\C,0,1.347748,-0.95
 7593,-0.359013\C,0,0.958225,-1.524466,0.9972\C,0,-0.346616,-1.42983,1.
 25592\C,0,-1.100767,-0.815806,0.112549\C,0,-0.010458,-0.468794,-0.9352
 93\C,0,-1.868882,0.514095,0.346471\O,0,-1.481955,1.363146,-0.760729\C,
 0,3.760249,-0.245101,0.025319\O,0,4.120052,-1.404122,0.145835\O,0,4.61
 6591,0.805108,0.105524\C,0,5.983301,0.45938,0.374425\O,0,-2.085392,-1.
 747276,-0.409669\C,0,-3.363343,-1.261536,-0.305492\C,0,-3.3076,0.1261,
 0.23033\C,0,-4.412093,0.8328,0.498927\C,0,-4.46713,2.238587,1.003366\H
 ,0,-5.022145,2.288607,1.949515\H,0,2.666988,2.257095,0.025538\H,0,-0.0
 64,1.359994,-2.188213\H,0,-0.246271,-0.972294,-1.875807\H,0,1.78127,-1
 .752265,-0.976794\H,0,-1.59698,0.999667,1.288995\H,0,1.710786,-1.93764
 2,1.661099\H,0,-0.846405,-1.766928,2.1591\H,0,-5.362581,0.330052,0.318
 445\H,0,-3.474369,2.671872,1.149585\O,0,-4.327796,-1.91431,-0.61852\H,
 0,-5.01218,2.872106,0.291071\H,0,6.382535,-0.179166,-0.418084\H,0,6.52
 1976,1.407016,0.409958\H,0,6.069068,-0.066826,1.329132\\Version=ES64L-
 G09RevE.01\State=1-A\HF=-1030.5316413\RMSD=4.036e-09\PG=C01 [X(C15H14O
 6)]\\@


 BLESSED ARE THOSE WHO NOUGHT EXPECT,
 FOR THEY SHALL NOT BE DISAPPOINTED..  WALCOT - ODE TO PITT
 Job cpu time:       0 days  3 hours 14 minutes 57.4 seconds.
 File lengths (MBytes):  RWF=   1004 Int=      0 D2E=      0 Chk=    159 Scr=      1
 Normal termination of Gaussian 09 at Thu Mar 30 14:12:22 2017.
