 Entering Gaussian System, Link 0=g09
 Initial command:
 /home/chen/bkd/g09E01/g09/l1.exe "/home/chen/lt/g09scr/Gau-25491.inp" -scrdir="/home/chen/lt/g09scr/"
 Entering Link 1 = /home/chen/bkd/g09E01/g09/l1.exe PID=     25492.
  
 Copyright (c) 1988,1990,1992,1993,1995,1998,2003,2009,2015,
            Gaussian, Inc.  All Rights Reserved.
  
 This is part of the Gaussian(R) 09 program.  It is based on
 the Gaussian(R) 03 system (copyright 2003, Gaussian, Inc.),
 the Gaussian(R) 98 system (copyright 1998, Gaussian, Inc.),
 the Gaussian(R) 94 system (copyright 1995, Gaussian, Inc.),
 the Gaussian 92(TM) system (copyright 1992, Gaussian, Inc.),
 the Gaussian 90(TM) system (copyright 1990, Gaussian, Inc.),
 the Gaussian 88(TM) system (copyright 1988, Gaussian, Inc.),
 the Gaussian 86(TM) system (copyright 1986, Carnegie Mellon
 University), and the Gaussian 82(TM) system (copyright 1983,
 Carnegie Mellon University). Gaussian is a federally registered
 trademark of Gaussian, Inc.
  
 This software contains proprietary and confidential information,
 including trade secrets, belonging to Gaussian, Inc.
  
 This software is provided under written license and may be
 used, copied, transmitted, or stored only in accord with that
 written license.
  
 The following legend is applicable only to US Government
 contracts under FAR:
  
                    RESTRICTED RIGHTS LEGEND
  
 Use, reproduction and disclosure by the US Government is
 subject to restrictions as set forth in subparagraphs (a)
 and (c) of the Commercial Computer Software - Restricted
 Rights clause in FAR 52.227-19.
  
 Gaussian, Inc.
 340 Quinnipiac St., Bldg. 40, Wallingford CT 06492
  
  
 ---------------------------------------------------------------
 Warning -- This program may not be used in any manner that
 competes with the business of Gaussian, Inc. or will provide
 assistance to any competitor of Gaussian, Inc.  The licensee
 of this program is prohibited from giving any competitor of
 Gaussian, Inc. access to this program.  By using this program,
 the user acknowledges that Gaussian, Inc. is engaged in the
 business of creating and licensing software in the field of
 computational chemistry and represents and warrants to the
 licensee that it is not a competitor of Gaussian, Inc. and that
 it will not use this program in any manner prohibited above.
 ---------------------------------------------------------------
  

 Cite this work as:
 Gaussian 09, Revision E.01,
 M. J. Frisch, G. W. Trucks, H. B. Schlegel, G. E. Scuseria, 
 M. A. Robb, J. R. Cheeseman, G. Scalmani, V. Barone, B. Mennucci, 
 G. A. Petersson, H. Nakatsuji, M. Caricato, X. Li, H. P. Hratchian, 
 A. F. Izmaylov, J. Bloino, G. Zheng, J. L. Sonnenberg, M. Hada, 
 M. Ehara, K. Toyota, R. Fukuda, J. Hasegawa, M. Ishida, T. Nakajima, 
 Y. Honda, O. Kitao, H. Nakai, T. Vreven, J. A. Montgomery, Jr., 
 J. E. Peralta, F. Ogliaro, M. Bearpark, J. J. Heyd, E. Brothers, 
 K. N. Kudin, V. N. Staroverov, T. Keith, R. Kobayashi, J. Normand, 
 K. Raghavachari, A. Rendell, J. C. Burant, S. S. Iyengar, J. Tomasi, 
 M. Cossi, N. Rega, J. M. Millam, M. Klene, J. E. Knox, J. B. Cross, 
 V. Bakken, C. Adamo, J. Jaramillo, R. Gomperts, R. E. Stratmann, 
 O. Yazyev, A. J. Austin, R. Cammi, C. Pomelli, J. W. Ochterski, 
 R. L. Martin, K. Morokuma, V. G. Zakrzewski, G. A. Voth, 
 P. Salvador, J. J. Dannenberg, S. Dapprich, A. D. Daniels, 
 O. Farkas, J. B. Foresman, J. V. Ortiz, J. Cioslowski, 
 and D. J. Fox, Gaussian, Inc., Wallingford CT, 2013.
 
 ******************************************
 Gaussian 09:  ES64L-G09RevE.01 30-Nov-2015
                30-Mar-2017 
 ******************************************
 %mem=30GB
 %nprocshared=16
 Will use up to   16 processors via shared memory.
 -----------------------------
 # PBE1PBE/TZVP TD(nstates=20)
 -----------------------------
 1/38=1/1;
 2/12=2,17=6,18=5,40=1/2;
 3/5=19,7=101,11=9,16=1,25=1,30=1,74=-13/1,2,8,3;
 4//1;
 5/5=2,38=5/2;
 8/6=1,10=1,108=20/1;
 9/41=20,42=1,70=2/14;
 6/7=2,8=2,9=2,10=2/1;
 99/5=1,9=1/99;
 -------------------------------
 Plumericin conformation 1b: ECD
 -------------------------------
 Symbolic Z-matrix:
 Charge =  0 Multiplicity = 1
 C                    -0.2628    1.19486  -1.11653 
 O                     0.55056   2.09089  -0.31245 
 C                     1.84414   1.77478  -0.12076 
 C                     2.36007   0.53236  -0.18747 
 C                     1.46059  -0.67147  -0.37189 
 C                     1.11697  -1.31718   0.96218 
 C                    -0.1924   -1.35978   1.21102 
 C                    -0.99519  -0.78442   0.08127 
 C                     0.06209  -0.29963  -0.94526 
 C                    -1.88795   0.45743   0.35244 
 O                    -1.58655   1.36897  -0.73088 
 C                     3.8077    0.39629   0.0549 
 O                     4.18343  -0.91142   0.08999 
 O                     4.59491   1.31172   0.21316 
 C                     5.58285  -1.13751   0.31705 
 O                    -1.8833   -1.78708  -0.47991 
 C                    -3.20292  -1.42995  -0.36636 
 C                    -3.28198  -0.06537   0.22229 
 C                    -4.44963   0.51607   0.52263 
 C                    -4.64194   1.88612   1.08766 
 O                    -4.09886  -2.16045  -0.70955 
 H                     2.45744   2.63847   0.11764 
 H                    -0.1674    1.55069  -2.14586 
 H                    -0.11654  -0.79552  -1.90221 
 H                     1.96346  -1.40099  -1.01625 
 H                    -1.66229   0.94046   1.30837 
 H                     1.89849  -1.67329   1.62592 
 H                    -0.66215  -1.77086   2.09952 
 H                    -5.34623  -0.0711    0.32243 
 H                    -3.69651   2.40677   1.26085 
 H                    -5.20211   1.83993   2.03092 
 H                    -5.24368   2.495     0.39993 
 H                     5.8891   -0.72008   1.27998 
 H                     5.70911  -2.22075   0.31012 
 H                     6.18022  -0.67542  -0.4734 
 
                          Input orientation:                          
 ---------------------------------------------------------------------
 Center     Atomic      Atomic             Coordinates (Angstroms)
 Number     Number       Type             X           Y           Z
 ---------------------------------------------------------------------
      1          6           0       -0.262798    1.194861   -1.116533
      2          8           0        0.550555    2.090894   -0.312449
      3          6           0        1.844139    1.774779   -0.120755
      4          6           0        2.360071    0.532360   -0.187467
      5          6           0        1.460590   -0.671466   -0.371886
      6          6           0        1.116967   -1.317177    0.962181
      7          6           0       -0.192399   -1.359778    1.211022
      8          6           0       -0.995188   -0.784420    0.081269
      9          6           0        0.062094   -0.299630   -0.945255
     10          6           0       -1.887949    0.457428    0.352441
     11          8           0       -1.586548    1.368970   -0.730877
     12          6           0        3.807700    0.396285    0.054895
     13          8           0        4.183428   -0.911417    0.089989
     14          8           0        4.594910    1.311723    0.213158
     15          6           0        5.582851   -1.137512    0.317051
     16          8           0       -1.883304   -1.787076   -0.479908
     17          6           0       -3.202921   -1.429949   -0.366356
     18          6           0       -3.281977   -0.065374    0.222285
     19          6           0       -4.449630    0.516070    0.522633
     20          6           0       -4.641942    1.886116    1.087656
     21          8           0       -4.098860   -2.160451   -0.709545
     22          1           0        2.457436    2.638468    0.117643
     23          1           0       -0.167396    1.550688   -2.145857
     24          1           0       -0.116535   -0.795524   -1.902208
     25          1           0        1.963461   -1.400987   -1.016246
     26          1           0       -1.662294    0.940463    1.308366
     27          1           0        1.898488   -1.673285    1.625915
     28          1           0       -0.662146   -1.770864    2.099525
     29          1           0       -5.346227   -0.071102    0.322432
     30          1           0       -3.696508    2.406768    1.260848
     31          1           0       -5.202111    1.839930    2.030917
     32          1           0       -5.243683    2.495003    0.399929
     33          1           0        5.889099   -0.720077    1.279980
     34          1           0        5.709111   -2.220750    0.310124
     35          1           0        6.180218   -0.675423   -0.473402
 ---------------------------------------------------------------------
                    Distance matrix (angstroms):
                    1          2          3          4          5
     1  C    0.000000
     2  O    1.452918   0.000000
     3  C    2.401471   1.345375   0.000000
     4  C    2.860334   2.391442   1.346938   0.000000
     5  C    2.647214   2.909008   2.488833   1.514026   0.000000
     6  C    3.540500   3.682452   3.355849   2.507546   1.521432
     7  C    3.456682   3.844487   3.968194   3.471464   2.389925
     8  C    2.426660   3.288125   3.827805   3.614401   2.499791
     9  C    1.538959   2.520643   2.856336   2.558740   1.556536
    10  C    2.311451   3.009417   3.985951   4.282848   3.607182
    11  O    1.389733   2.294224   3.508068   4.070751   3.684739
    12  C    4.310327   3.689937   2.405550   1.474071   2.613649
    13  O    5.065672   4.730073   3.568240   2.342243   2.772138
    14  O    5.037764   4.152129   2.809388   2.400503   3.754900
    15  C    6.454978   6.011895   4.759315   3.664604   4.205338
    16  O    3.453010   4.581524   5.168136   4.844743   3.526738
    17  C    4.012071   5.146632   5.983596   5.901656   4.724792
    18  C    3.534978   4.429868   5.457188   5.688399   4.817917
    19  C    4.547217   5.308416   6.450568   6.846644   6.094350
    20  C    4.951079   5.381845   6.598629   7.244776   6.775868
    21  O    5.112644   6.312581   7.152059   7.017235   5.765290
    22  H    3.317660   2.030027   1.085783   2.130320   3.491275
    23  H    1.093262   2.041730   2.863133   3.355648   3.276474
    24  H    2.144833   3.362105   3.691108   3.291989   2.201045
    25  H    3.421215   3.832084   3.301762   2.140562   1.095573
    26  H    2.811306   2.974430   3.877311   4.310857   3.895378
    27  H    4.518677   4.443335   3.865612   2.892453   2.277412
    28  H    4.392953   4.711840   4.876750   4.434971   3.438394
    29  H    5.432728   6.312633   7.436737   7.746689   6.868426
    30  H    4.348681   4.540108   5.745172   6.503320   6.223906
    31  H    5.892314   6.216712   7.367739   7.988590   7.514796
    32  H    5.366492   5.851836   7.143322   7.874902   7.454495
    33  H    6.874307   6.239987   4.954601   4.021945   4.726808
    34  H    7.026055   6.751931   5.575654   4.363861   4.573330
    35  H    6.739736   6.274673   4.992938   4.016718   4.720721
                    6          7          8          9         10
     6  C    0.000000
     7  C    1.333483   0.000000
     8  C    2.349688   1.500616   0.000000
     9  C    2.405508   2.416239   1.551328   0.000000
    10  C    3.542672   2.629504   1.553301   2.461670   0.000000
    11  O    4.170231   3.627766   2.376210   2.355463   1.447525
    12  C    3.316499   4.518980   4.945957   3.938802   5.703743
    13  O    3.213805   4.539340   5.180180   4.293182   6.229305
    14  O    4.423600   5.572340   5.971633   4.948212   6.540388
    15  C    4.515816   5.848256   6.591727   5.724877   7.639237
    16  O    3.361852   2.429195   1.452236   2.492713   2.393872
    17  C    4.520969   3.399454   2.343323   3.503294   2.409982
    18  C    4.633051   3.492646   2.401316   3.549766   1.494516
    19  C    5.877159   4.702840   3.717425   4.814116   2.567998
    20  C    6.591044   5.509036   4.630701   5.571191   3.188443
    21  O    5.541717   4.426070   3.485919   4.564181   3.587371
    22  H    4.261130   4.919662   4.861903   3.936983   4.867693
    23  H    4.419744   4.442980   3.331375   2.217609   3.224440
    24  H    3.162020   3.164860   2.169409   1.092510   3.129095
    25  H    2.153543   3.100025   3.215322   2.198459   4.490030
    26  H    3.597370   2.731515   2.219464   3.096797   1.094548
    27  H    1.085417   2.154584   3.398437   3.445314   4.527558
    28  H    2.159775   1.085860   2.270979   3.458285   3.085479
    29  H    6.613234   5.386299   4.415713   5.559604   3.498561
    30  H    6.093153   5.144719   4.344217   5.130163   2.809985
    31  H    7.144247   6.000631   5.327902   6.414606   3.963870
    32  H    7.436848   6.405675   5.376418   6.145792   3.926184
    33  H    4.819831   6.115439   6.988165   6.251594   7.920184
    34  H    4.725400   6.031642   6.860251   6.095529   8.055417
    35  H    5.301816   6.626905   7.197638   6.147789   8.189059
                   11         12         13         14         15
    11  O    0.000000
    12  C    5.537280   0.000000
    13  O    6.258323   1.361061   0.000000
    14  O    6.253391   1.217692   2.264253   0.000000
    15  C    7.666869   2.360597   1.435640   2.643024   0.000000
    16  O    3.179886   6.118873   6.156038   7.214579   7.536614
    17  C    3.252612   7.256817   7.418577   8.286059   8.817162
    18  C    2.416680   7.106664   7.514357   7.996363   8.929929
    19  C    3.239748   8.271434   8.760970   9.084742  10.169920
    20  C    3.593040   8.641912   9.311750   9.295919  10.690302
    21  O    4.332318   8.344756   8.414014   9.406860   9.789578
    22  H    4.322663   2.618117   3.947340   2.517572   4.905712
    23  H    2.012258   4.688000   5.476371   5.319926   6.808647
    24  H    2.866703   4.544258   4.740460   5.577901   6.125771
    25  H    4.511836   2.789041   2.528179   3.974261   3.866146
    26  H    2.085154   5.638098   6.251909   6.363169   7.602158
    27  H    5.191846   3.224332   2.856652   4.263431   3.946481
    28  H    4.327153   5.371831   5.315682   6.379448   6.525208
    29  H    4.161545   9.169755   9.569456  10.037447  10.980984
    30  H    3.081546   7.861902   8.629870   8.428783   9.977935
    31  H    4.574014   9.336245   9.971231   9.978220  11.318918
    32  H    3.990151   9.297914  10.028469   9.911254  11.419977
    33  H    8.018289   2.660699   2.088541   2.634624   1.093285
    34  H    8.197342   3.244900   2.022504   3.705295   1.090593
    35  H    8.035452   2.656407   2.088127   2.633119   1.093247
                   16         17         18         19         20
    16  O    0.000000
    17  C    1.371795   0.000000
    18  C    2.326718   1.488225   0.000000
    19  C    3.591044   2.476202   1.338544   0.000000
    20  C    4.853831   3.896308   2.531143   1.494410   0.000000
    21  O    2.258502   1.205868   2.434123   2.967333   4.460894
    22  H    6.227723   6.987554   6.345280   7.237137   7.204729
    23  H    4.106141   4.611424   4.233246   5.150612   5.530794
    24  H    2.475396   3.505298   3.881573   5.135742   6.050602
    25  H    3.903117   5.207178   5.552697   6.868114   7.672209
    26  H    3.268981   3.285891   2.194232   2.926897   3.133891
    27  H    4.330057   5.482037   5.602925   6.805080   7.465674
    28  H    2.853938   3.557011   3.646401   4.696987   5.498741
    29  H    3.947170   2.629573   2.066686   1.090292   2.216368
    30  H    4.889404   4.196644   2.713289   2.164923   1.093124
    31  H    5.520317   4.520596   3.253959   2.143304   1.098027
    32  H    5.513843   4.489672   3.230384   2.135826   1.098091
    33  H    8.040270   9.267101   9.255052  10.439873  10.850440
    34  H    7.645717   8.972586   9.246244  10.523087  11.163118
    35  H    8.139791   9.414036   9.507327  10.742691  11.230206
                   21         22         23         24         25
    21  O    0.000000
    22  H    8.166938   0.000000
    23  H    5.593921   3.632691   0.000000
    24  H    4.375429   4.743145   2.359378   0.000000
    25  H    6.117400   4.224561   3.811687   2.340491   0.000000
    26  H    4.429953   4.612290   3.812971   3.963686   4.902276
    27  H    6.454447   4.602013   5.374769   4.156734   2.656950
    28  H    4.455744   5.753421   5.413017   4.154858   4.091290
    29  H    2.643157   8.263224   5.961790   5.729179   7.549317
    30  H    4.990373   6.263516   4.979271   5.751157   7.191620
    31  H    4.972961   7.935171   6.548088   6.948250   8.434107
    32  H    4.920854   7.707626   5.756861   6.512684   8.314278
    33  H   10.285534   4.940361   7.319417   6.797033   4.598579
    34  H    9.861017   5.849995   7.401954   6.392483   4.057236
    35  H   10.388480   5.018995   6.931441   6.457942   4.313022
                   26         27         28         29         30
    26  H    0.000000
    27  H    4.428508   0.000000
    28  H    2.996251   2.605892   0.000000
    29  H    3.945465   7.533389   5.290356   0.000000
    30  H    2.508054   6.934269   5.230998   3.121224   0.000000
    31  H    3.723094   7.932541   5.801191   2.567437   1.783578
    32  H    4.008516   8.359921   6.486658   2.569322   1.772771
    33  H    7.731865   4.117433   6.685403  11.294716  10.082727
    34  H    8.082535   4.068399   6.633044  11.262399  10.525373
    35  H    8.203096   4.871968   7.391745  11.569680  10.490817
                   31         32         33         34         35
    31  H    0.000000
    32  H    1.758116   0.000000
    33  H   11.407562  11.621104   0.000000
    34  H   11.768815  11.925187   1.795838   0.000000
    35  H   11.922920  11.887801   1.777946   1.795520   0.000000
 Stoichiometry    C15H14O6
 Framework group  C1[X(C15H14O6)]
 Deg. of freedom    99
 Full point group                 C1      NOp   1
 Largest Abelian subgroup         C1      NOp   1
 Largest concise Abelian subgroup C1      NOp   1
                         Standard orientation:                         
 ---------------------------------------------------------------------
 Center     Atomic      Atomic             Coordinates (Angstroms)
 Number     Number       Type             X           Y           Z
 ---------------------------------------------------------------------
      1          6           0       -0.262798    1.194861   -1.116533
      2          8           0        0.550555    2.090894   -0.312449
      3          6           0        1.844139    1.774779   -0.120755
      4          6           0        2.360071    0.532360   -0.187467
      5          6           0        1.460590   -0.671466   -0.371886
      6          6           0        1.116967   -1.317177    0.962181
      7          6           0       -0.192399   -1.359778    1.211022
      8          6           0       -0.995188   -0.784420    0.081269
      9          6           0        0.062094   -0.299630   -0.945255
     10          6           0       -1.887949    0.457428    0.352441
     11          8           0       -1.586548    1.368970   -0.730877
     12          6           0        3.807700    0.396285    0.054895
     13          8           0        4.183428   -0.911417    0.089989
     14          8           0        4.594910    1.311723    0.213158
     15          6           0        5.582851   -1.137512    0.317051
     16          8           0       -1.883304   -1.787076   -0.479908
     17          6           0       -3.202921   -1.429949   -0.366356
     18          6           0       -3.281977   -0.065374    0.222285
     19          6           0       -4.449630    0.516070    0.522633
     20          6           0       -4.641942    1.886116    1.087656
     21          8           0       -4.098860   -2.160451   -0.709545
     22          1           0        2.457436    2.638468    0.117643
     23          1           0       -0.167396    1.550688   -2.145857
     24          1           0       -0.116535   -0.795524   -1.902208
     25          1           0        1.963461   -1.400987   -1.016246
     26          1           0       -1.662294    0.940463    1.308366
     27          1           0        1.898488   -1.673285    1.625915
     28          1           0       -0.662146   -1.770864    2.099525
     29          1           0       -5.346227   -0.071102    0.322432
     30          1           0       -3.696508    2.406768    1.260848
     31          1           0       -5.202111    1.839930    2.030917
     32          1           0       -5.243683    2.495003    0.399929
     33          1           0        5.889099   -0.720077    1.279980
     34          1           0        5.709111   -2.220750    0.310124
     35          1           0        6.180218   -0.675423   -0.473402
 ---------------------------------------------------------------------
 Rotational constants (GHZ):      0.7908109      0.1780278      0.1568446
 Standard basis: TZVP (5D, 7F)
 There are   504 symmetry adapted cartesian basis functions of A   symmetry.
 There are   483 symmetry adapted basis functions of A   symmetry.
   483 basis functions,   847 primitive gaussians,   504 cartesian basis functions
    76 alpha electrons       76 beta electrons
       nuclear repulsion energy      1726.3745184852 Hartrees.
 NAtoms=   35 NActive=   35 NUniq=   35 SFac= 1.00D+00 NAtFMM=   60 NAOKFM=F Big=F
 Integral buffers will be    131072 words long.
 Regular integral format.
 Two-electron integral symmetry is turned on.
 One-electron integrals computed using PRISM.
 NBasis=   483 RedAO= T EigKep=  1.40D-05  NBF=   483
 NBsUse=   483 1.00D-06 EigRej= -1.00D+00 NBFU=   483
 ExpMin= 9.52D-02 ExpMax= 2.70D+04 ExpMxC= 9.22D+02 IAcc=2 IRadAn=         4 AccDes= 0.00D+00
 Harris functional with IExCor= 1009 and IRadAn=       4 diagonalized for initial guess.
 HarFok:  IExCor= 1009 AccDes= 0.00D+00 IRadAn=         4 IDoV= 1 UseB2=F ITyADJ=14
 ICtDFT=  3500011 ScaDFX=  1.000000  1.000000  1.000000  1.000000
 FoFCou: FMM=F IPFlag=           0 FMFlag=      100000 FMFlg1=           0
         NFxFlg=           0 DoJE=T BraDBF=F KetDBF=T FulRan=T
         wScrn=  0.000000 ICntrl=     500 IOpCl=  0 I1Cent=   200000004 NGrid=           0
         NMat0=    1 NMatS0=      1 NMatT0=    0 NMatD0=    1 NMtDS0=    0 NMtDT0=    0
 Petite list used in FoFCou.
 Requested convergence on RMS density matrix=1.00D-08 within 128 cycles.
 Requested convergence on MAX density matrix=1.00D-06.
 Requested convergence on             energy=1.00D-06.
 No special actions if energy rises.
 Integral accuracy reduced to 1.0D-05 until final iterations.
 Initial convergence to 1.0D-05 achieved.  Increase integral accuracy.
 SCF Done:  E(RPBE1PBE) =  -1030.53066291     A.U. after   19 cycles
            NFock= 19  Conv=0.86D-08     -V/T= 2.0047
 DoSCS=F DFT=T ScalE2(SS,OS)=  1.000000  1.000000
 ExpMin= 9.52D-02 ExpMax= 2.70D+04 ExpMxC= 9.22D+02 IAcc=3 IRadAn=         5 AccDes= 0.00D+00
 HarFok:  IExCor=  205 AccDes= 0.00D+00 IRadAn=         5 IDoV=-2 UseB2=F ITyADJ=14
 ICtDFT= 12500011 ScaDFX=  1.000000  1.000000  1.000000  1.000000
 Range of M.O.s used for correlation:    22   483
 NBasis=   483 NAE=    76 NBE=    76 NFC=    21 NFV=     0
 NROrb=    462 NOA=    55 NOB=    55 NVA=   407 NVB=   407

 **** Warning!!: The largest alpha MO coefficient is  0.61747250D+02

 Would need an additional         17874700000 words for in-memory AO integral storage.
 Orbital symmetries:
       Occupied  (A) (A) (A) (A) (A) (A) (A) (A) (A) (A) (A) (A)
                 (A) (A) (A) (A) (A) (A) (A) (A) (A) (A) (A) (A)
                 (A) (A) (A) (A) (A) (A) (A) (A) (A) (A) (A) (A)
                 (A) (A) (A) (A) (A) (A) (A) (A) (A) (A) (A) (A)
                 (A) (A) (A) (A) (A) (A) (A) (A) (A) (A) (A) (A)
                 (A) (A) (A) (A) (A) (A) (A) (A) (A) (A) (A) (A)
                 (A) (A) (A) (A)
       Virtual   (A) (A) (A) (A) (A) (A) (A) (A) (A) (A) (A) (A)
                 (A) (A) (A) (A) (A) (A) (A) (A) (A) (A) (A) (A)
                 (A) (A) (A) (A) (A) (A) (A) (A) (A) (A) (A) (A)
                 (A) (A) (A) (A) (A) (A) (A) (A) (A) (A) (A) (A)
                 (A) (A) (A) (A) (A) (A) (A) (A) (A) (A) (A) (A)
                 (A) (A) (A) (A) (A) (A) (A) (A) (A) (A) (A) (A)
                 (A) (A) (A) (A) (A) (A) (A) (A) (A) (A) (A) (A)
                 (A) (A) (A) (A) (A) (A) (A) (A) (A) (A) (A) (A)
                 (A) (A) (A) (A) (A) (A) (A) (A) (A) (A) (A) (A)
                 (A) (A) (A) (A) (A) (A) (A) (A) (A) (A) (A) (A)
                 (A) (A) (A) (A) (A) (A) (A) (A) (A) (A) (A) (A)
                 (A) (A) (A) (A) (A) (A) (A) (A) (A) (A) (A) (A)
                 (A) (A) (A) (A) (A) (A) (A) (A) (A) (A) (A) (A)
                 (A) (A) (A) (A) (A) (A) (A) (A) (A) (A) (A) (A)
                 (A) (A) (A) (A) (A) (A) (A) (A) (A) (A) (A) (A)
                 (A) (A) (A) (A) (A) (A) (A) (A) (A) (A) (A) (A)
                 (A) (A) (A) (A) (A) (A) (A) (A) (A) (A) (A) (A)
                 (A) (A) (A) (A) (A) (A) (A) (A) (A) (A) (A) (A)
                 (A) (A) (A) (A) (A) (A) (A) (A) (A) (A) (A) (A)
                 (A) (A) (A) (A) (A) (A) (A) (A) (A) (A) (A) (A)
                 (A) (A) (A) (A) (A) (A) (A) (A) (A) (A) (A) (A)
                 (A) (A) (A) (A) (A) (A) (A) (A) (A) (A) (A) (A)
                 (A) (A) (A) (A) (A) (A) (A) (A) (A) (A) (A) (A)
                 (A) (A) (A) (A) (A) (A) (A) (A) (A) (A) (A) (A)
                 (A) (A) (A) (A) (A) (A) (A) (A) (A) (A) (A) (A)
                 (A) (A) (A) (A) (A) (A) (A) (A) (A) (A) (A) (A)
                 (A) (A) (A) (A) (A) (A) (A) (A) (A) (A) (A) (A)
                 (A) (A) (A) (A) (A) (A) (A) (A) (A) (A) (A) (A)
                 (A) (A) (A) (A) (A) (A) (A) (A) (A) (A) (A) (A)
                 (A) (A) (A) (A) (A) (A) (A) (A) (A) (A) (A) (A)
                 (A) (A) (A) (A) (A) (A) (A) (A) (A) (A) (A) (A)
                 (A) (A) (A) (A) (A) (A) (A) (A) (A) (A) (A) (A)
                 (A) (A) (A) (A) (A) (A) (A) (A) (A) (A) (A) (A)
                 (A) (A) (A) (A) (A) (A) (A) (A) (A) (A) (A)
    80 initial guesses have been made.
 Convergence on wavefunction:    0.001000000000000
 Iteration     1 Dimension    80 NMult     0 NNew     80
 CISAX will form    80 AO SS matrices at one time.
 New state      1 was old state      3
 New state      2 was old state      1
 New state      3 was old state     10
 New state      4 was old state      6
 New state      5 was old state      8
 New state      6 was old state      7
 New state      7 was old state      5
 New state      8 was old state     13
 New state     10 was old state     11
 New state     11 was old state      2
 New state     13 was old state     17
 New state     14 was old state     18
 New state     15 was old state     14
 New state     17 was old state     20
 New state     18 was old state     22
 New state     19 was old state     23
 New state     20 was old state     21
 Iteration     2 Dimension   120 NMult    80 NNew     40
 New state      4 was old state      5
 New state      5 was old state      4
 New state      7 was old state      9
 New state      8 was old state      7
 New state      9 was old state      8
 New state     10 was old state     14
 New state     11 was old state     12
 New state     12 was old state     10
 New state     13 was old state     11
 New state     14 was old state     13
 New state     15 was old state     16
 New state     16 was old state     15
 New state     17 was old state     19
 New state     18 was old state     23
 New state     19 was old state     18
 New state     20 was old state     17
 Iteration     3 Dimension   160 NMult   120 NNew     40
 Iteration     4 Dimension   200 NMult   160 NNew     40
 Iteration     5 Dimension   226 NMult   200 NNew     26
 Iteration     6 Dimension   236 NMult   226 NNew     10
 ***********************************************************************
 Excited states from <AA,BB:AA,BB> singles matrix:
 ***********************************************************************
 
 Ground to excited state transition densities written to RWF  633
 Ground to excited state transition electric dipole moments (Au):
       state          X           Y           Z        Dip. S.      Osc.
         1        -0.0827      0.0379      0.0227      0.0088      0.0010
         2         0.1156     -0.1769     -0.0155      0.0449      0.0054
         3        -0.3369      0.2166     -0.0618      0.1642      0.0206
         4         0.9026     -0.6296      0.2347      1.2662      0.1661
         5        -0.0572     -0.1518     -0.0757      0.0320      0.0043
         6         0.7303     -0.1659      0.0063      0.5609      0.0791
         7        -0.6628      0.1181      0.0650      0.4574      0.0648
         8         0.6310     -0.5700     -0.3464      0.8431      0.1231
         9         0.3614     -0.5081     -0.2495      0.4510      0.0664
        10        -0.8459      0.5704      0.2775      1.1179      0.1665
        11        -0.9190      0.1612      0.1102      0.8828      0.1347
        12         0.1652     -0.3013     -0.0951      0.1271      0.0195
        13         0.3827     -0.1548     -0.0314      0.1714      0.0267
        14         0.0267      0.0412     -0.0439      0.0043      0.0007
        15         0.1542     -0.3383     -0.0106      0.1383      0.0228
        16        -0.1942      0.1503     -0.0364      0.0616      0.0103
        17         0.2665      0.1149      0.0632      0.0882      0.0147
        18        -0.2941      0.3116     -0.0224      0.1841      0.0309
        19        -0.6914     -0.1482      0.1871      0.5350      0.0904
        20        -0.5605      0.1097     -0.0665      0.3306      0.0561
 Ground to excited state transition velocity dipole moments (Au):
       state          X           Y           Z        Dip. S.      Osc.
         1         0.0147     -0.0065     -0.0046      0.0003      0.0011
         2        -0.0212      0.0319      0.0030      0.0015      0.0055
         3         0.0618     -0.0405      0.0126      0.0056      0.0199
         4        -0.1707      0.1220     -0.0461      0.0462      0.1564
         5         0.0090      0.0297      0.0152      0.0012      0.0040
         6        -0.1491      0.0348     -0.0014      0.0235      0.0739
         7         0.1365     -0.0232     -0.0136      0.0194      0.0607
         8        -0.1389      0.1210      0.0742      0.0394      0.1201
         9        -0.0828      0.1096      0.0539      0.0218      0.0657
        10         0.1871     -0.1215     -0.0605      0.0534      0.1595
        11         0.2027     -0.0319     -0.0239      0.0427      0.1244
        12        -0.0387      0.0683      0.0218      0.0066      0.0193
        13        -0.0889      0.0367      0.0065      0.0093      0.0265
        14        -0.0053     -0.0133      0.0098      0.0003      0.0008
        15        -0.0331      0.0711      0.0012      0.0061      0.0166
        16         0.0441     -0.0356      0.0080      0.0033      0.0087
        17        -0.0649     -0.0294     -0.0155      0.0053      0.0142
        18         0.0669     -0.0686      0.0053      0.0092      0.0244
        19         0.1686      0.0359     -0.0444      0.0317      0.0833
        20         0.1398     -0.0275      0.0127      0.0204      0.0536
 Ground to excited state transition magnetic dipole moments (Au):
       state          X           Y           Z
         1        -0.3181     -0.3568     -0.0994
         2         0.0629      0.1818      0.4202
         3        -0.3450     -0.4400     -0.5494
         4        -0.3413      0.2794      1.5562
         5        -0.0091      0.2410      0.1408
         6        -0.0552      0.0696      0.3058
         7         0.3193      0.1054      0.1598
         8         0.0245      0.4113     -0.9352
         9        -0.0742      0.2450     -0.7904
        10         0.1366     -0.2916      1.2362
        11         0.0979     -0.2582      0.7819
        12        -0.0684      0.1053     -0.1739
        13         0.3278      0.1054      0.0350
        14        -0.5045     -0.0286     -0.4736
        15         0.1349      0.2683      0.5584
        16         0.2121      0.2199     -0.2677
        17         0.2083     -0.1779     -0.1220
        18         0.0852      0.1358     -0.5421
        19        -0.1047      0.7131      0.9071
        20         0.1654      0.0367      0.2256
 Ground to excited state transition velocity quadrupole moments (Au):
       state          XX          YY          ZZ          XY          XZ          YZ
         1        -0.1509      0.0002      0.0056      0.0595      0.0752      0.0100
         2        -0.1217      0.0275     -0.0026     -0.1312     -0.0702     -0.0031
         3         0.6297     -0.1530     -0.0104     -0.0305     -0.0087      0.0117
         4        -1.7842      0.4647      0.0416      0.1394     -0.0861     -0.1221
         5         0.1147     -0.0631      0.0079     -0.2989     -0.1364      0.0304
         6        -1.0554      0.1631      0.1045     -0.0709     -0.0571      0.0200
         7         0.3411     -0.0832     -0.0726      0.1265      0.1400      0.0397
         8         1.7078     -0.1750      0.0662     -1.2749     -0.6399      0.1161
         9         0.9234     -0.0700      0.0132     -1.0856     -0.5418      0.0036
        10        -1.9928      0.0294     -0.0136      1.0383      0.6088     -0.0839
        11        -1.7076     -0.0393     -0.0361      0.1376      0.2048     -0.1563
        12         0.1734      0.0326     -0.0081     -0.4699     -0.2562     -0.0155
        13         0.1518      0.0852      0.0127     -0.0839     -0.1048      0.0848
        14         0.6072     -0.0479     -0.0181      0.0631     -0.0447     -0.0388
        15        -0.4590      0.1302     -0.0072      0.6131     -0.0496      0.0227
        16         0.1855     -0.0248     -0.0128     -0.2901      0.0260     -0.0228
        17        -0.6263      0.0378      0.0161      0.5358      0.1377      0.0378
        18         0.8224     -0.1059      0.0033     -0.7684      0.0450     -0.0346
        19         0.1245     -0.1464      0.1494      0.0579      0.1483     -0.1144
        20         0.0116     -0.0054     -0.1776     -0.1451      0.1981      0.0992
 <0|del|b> * <b|rxdel|0> + <0|del|b> * <b|delr+rdel|0>
 Rotatory Strengths (R) in cgs (10**-40 erg-esu-cm/Gauss)
       state          XX          YY          ZZ    R(velocity)    E-M Angle
         1         6.1222     -7.8057     -6.1633     -2.6156      103.54
         2        17.5520      0.7979      4.2454      7.5318       71.15
         3        19.0811    -50.9025     -7.2607    -13.0274      100.21
         4       -60.4433     24.7302    109.6158     24.6342       86.61
         5        15.4997     12.1050      4.8393     10.8146       17.24
         6         6.8095      7.8809     19.4857     11.3920       77.90
         7        -5.1355     80.7943     54.0772     43.2454       41.19
         8       -59.3574      9.1685    -24.1542    -24.7810       96.51
         9       -23.9114     34.8477    -41.7517    -10.2718       94.50
        10       -44.5180     -3.3414      4.2776    -14.5273       92.67
        11       -11.1106    -42.0720     82.2865      9.7013       86.85
        12        16.3868     14.9268    -12.7216      6.1974       69.78
        13        11.1785    -54.2569    -32.6015    -25.2267      138.65
        14        -6.1658     -3.4085      5.0646     -1.5032       97.37
        15        34.2692     -7.5345     16.9002     14.5450       72.10
        16       -16.0434     12.0594      2.2742     -0.5699       91.49
        17         4.0586     -8.1825    -13.9738     -6.0326      107.02
        18       -18.4548      6.4266     -6.1583     -6.0622       96.86
        19       -31.5380   -104.1760     45.4129    -30.1003       99.03
        20         7.5745     57.9007      3.9065     23.1272       51.75
 1/2[<0|r|b>*<b|rxdel|0> + (<0|rxdel|b>*<b|r|0>)*]
 Rotatory Strengths (R) in cgs (10**-40 erg-esu-cm/Gauss)
       state          XX          YY          ZZ     R(length)
         1       -18.5996      9.5531      1.5978     -2.4829
         2        -5.1386     22.7404      4.6039      7.4019
         3       -82.1959     67.3904    -23.9985    -12.9346
         4       217.8875    124.3934   -258.3103     27.9902
         5        -0.3695     25.8659      7.5386     11.0117
         6        28.5108      8.1595     -1.3646     11.7686
         7       149.6590     -8.7959     -7.3495     44.5045
         8       -10.9456    165.7925   -229.1261    -24.7598
         9        18.9492     88.0382   -139.4709    -10.8278
        10        81.6806    117.6100   -242.5629    -14.4241
        11        63.6592     29.4411    -60.9331     10.7224
        12         7.9871     22.4254    -11.6912      6.2404
        13       -88.7159     11.5349      0.7780    -25.4677
        14         9.5146      0.8323    -14.6905     -1.4479
        15       -14.7068     64.1737      4.1987     17.8885
        16        29.1196    -23.3712     -6.8973     -0.3830
        17       -39.2481     14.4585      5.4480     -6.4472
        18        17.7173    -29.9141     -8.5820     -6.9263
        19       -51.2047     74.7122   -120.0435    -32.1787
        20        65.5547     -2.8467     10.6054     24.4378
  1/2[<0|del|b>*<b|r|0> + (<0|r|b>*<b|del|0>)*] (Au)
       state          X           Y           Z        Dip. S.   Osc.(frdel)
         1        -0.0012     -0.0002     -0.0001      0.0016      0.0010
         2        -0.0025     -0.0056     -0.0000      0.0081      0.0054
         3        -0.0208     -0.0088     -0.0008      0.0304      0.0202
         4        -0.1541     -0.0768     -0.0108      0.2417      0.1612
         5        -0.0005     -0.0045     -0.0011      0.0062      0.0041
         6        -0.1089     -0.0058     -0.0000      0.1147      0.0765
         7        -0.0905     -0.0027     -0.0009      0.0941      0.0627
         8        -0.0876     -0.0690     -0.0257      0.1823      0.1216
         9        -0.0299     -0.0557     -0.0135      0.0990      0.0660
        10        -0.1583     -0.0693     -0.0168      0.2444      0.1629
        11        -0.1863     -0.0051     -0.0026      0.1941      0.1294
        12        -0.0064     -0.0206     -0.0021      0.0290      0.0194
        13        -0.0340     -0.0057     -0.0002      0.0399      0.0266
        14        -0.0001     -0.0005     -0.0004      0.0011      0.0007
        15        -0.0051     -0.0240     -0.0000      0.0292      0.0194
        16        -0.0086     -0.0053     -0.0003      0.0142      0.0095
        17        -0.0173     -0.0034     -0.0010      0.0216      0.0144
        18        -0.0197     -0.0214     -0.0001      0.0412      0.0274
        19        -0.1165     -0.0053     -0.0083      0.1302      0.0868
        20        -0.0783     -0.0030     -0.0008      0.0822      0.0548

 Excitation energies and oscillator strengths:
 
 Excited State   1:      Singlet-A      4.6754 eV  265.19 nm  f=0.0010  <S**2>=0.000
      72 -> 77        -0.35309
      74 -> 77         0.39151
      75 -> 77         0.44879
 This state for optimization and/or second-order correction.
 Total Energy, E(TD-HF/TD-KS) =  -1030.35884615    
 Copying the excited state density for this state as the 1-particle RhoCI density.
 
 Excited State   2:      Singlet-A      4.8883 eV  253.64 nm  f=0.0054  <S**2>=0.000
      76 -> 77         0.70159
 
 Excited State   3:      Singlet-A      5.1277 eV  241.79 nm  f=0.0206  <S**2>=0.000
      72 -> 78        -0.16430
      73 -> 78         0.57260
      73 -> 79         0.10672
      74 -> 78        -0.11900
      75 -> 78        -0.11725
      76 -> 78        -0.28321
 
 Excited State   4:      Singlet-A      5.3547 eV  231.54 nm  f=0.1661  <S**2>=0.000
      73 -> 78         0.24834
      76 -> 78         0.62118
      76 -> 79        -0.15047
 
 Excited State   5:      Singlet-A      5.4582 eV  227.15 nm  f=0.0043  <S**2>=0.000
      72 -> 77         0.28312
      74 -> 77        -0.34905
      75 -> 77         0.52985
 
 Excited State   6:      Singlet-A      5.7549 eV  215.44 nm  f=0.0791  <S**2>=0.000
      75 -> 78         0.16085
      76 -> 78         0.12898
      76 -> 79         0.65829
 
 Excited State   7:      Singlet-A      5.7808 eV  214.48 nm  f=0.0648  <S**2>=0.000
      72 -> 78         0.16652
      73 -> 78         0.11433
      74 -> 78        -0.18877
      75 -> 78         0.60914
      76 -> 79        -0.17058
 
 Excited State   8:      Singlet-A      5.9593 eV  208.05 nm  f=0.1231  <S**2>=0.000
      70 -> 77        -0.33711
      71 -> 77         0.34672
      72 -> 77        -0.33041
      73 -> 77        -0.25624
      74 -> 77        -0.26388
 
 Excited State   9:      Singlet-A      6.0084 eV  206.35 nm  f=0.0664  <S**2>=0.000
      70 -> 77         0.31594
      72 -> 77        -0.35692
      73 -> 77         0.39011
      74 -> 77        -0.30885
 
 Excited State  10:      Singlet-A      6.0809 eV  203.89 nm  f=0.1665  <S**2>=0.000
      70 -> 77        -0.29223
      71 -> 77         0.33099
      72 -> 77         0.11168
      73 -> 77         0.48435
      74 -> 77         0.17798
 
 Excited State  11:      Singlet-A      6.2272 eV  199.10 nm  f=0.1347  <S**2>=0.000
      69 -> 77         0.17320
      70 -> 77         0.38637
      71 -> 77         0.47791
      72 -> 77         0.16074
      73 -> 77        -0.15973
 
 Excited State  12:      Singlet-A      6.2527 eV  198.29 nm  f=0.0195  <S**2>=0.000
      73 -> 78         0.15340
      74 -> 78         0.63341
      75 -> 78         0.19751
 
 Excited State  13:      Singlet-A      6.3696 eV  194.65 nm  f=0.0267  <S**2>=0.000
      70 -> 78         0.19985
      71 -> 78        -0.18927
      72 -> 78         0.57565
      73 -> 78         0.16560
      74 -> 78         0.11009
      75 -> 78        -0.18255
 
 Excited State  14:      Singlet-A      6.5824 eV  188.36 nm  f=0.0007  <S**2>=0.000
      68 -> 78         0.11524
      70 -> 78        -0.34153
      71 -> 78         0.50939
      72 -> 78         0.26954
 
 Excited State  15:      Singlet-A      6.7373 eV  184.03 nm  f=0.0228  <S**2>=0.000
      69 -> 77        -0.30562
      69 -> 78        -0.34774
      70 -> 78         0.40481
      71 -> 78         0.23923
      73 -> 79        -0.14205
 
 Excited State  16:      Singlet-A      6.7969 eV  182.41 nm  f=0.0103  <S**2>=0.000
      69 -> 77         0.42587
      69 -> 78         0.23176
      70 -> 78         0.26028
      71 -> 78         0.21786
      71 -> 79        -0.12042
      73 -> 79        -0.20844
      74 -> 79         0.21912
 
 Excited State  17:      Singlet-A      6.8023 eV  182.27 nm  f=0.0147  <S**2>=0.000
      69 -> 77        -0.11851
      70 -> 78        -0.11207
      71 -> 78        -0.10866
      72 -> 79        -0.10606
      74 -> 79         0.49695
      75 -> 79         0.38169
 
 Excited State  18:      Singlet-A      6.8549 eV  180.87 nm  f=0.0309  <S**2>=0.000
      69 -> 77        -0.41038
      69 -> 78         0.51881
 
 Excited State  19:      Singlet-A      6.8964 eV  179.78 nm  f=0.0904  <S**2>=0.000
      74 -> 79         0.28638
      75 -> 79        -0.28886
      76 -> 80         0.52539
 
 Excited State  20:      Singlet-A      6.9262 eV  179.01 nm  f=0.0561  <S**2>=0.000
      73 -> 79         0.49196
      74 -> 79         0.25955
      75 -> 79        -0.20129
      76 -> 80        -0.32650
 SavETr:  write IOETrn=   770 NScale= 10 NData=  16 NLR=1 NState=   20 LETran=     370.

 **********************************************************************

            Population analysis using the SCF density.

 **********************************************************************

 Orbital symmetries:
       Occupied  (A) (A) (A) (A) (A) (A) (A) (A) (A) (A) (A) (A)
                 (A) (A) (A) (A) (A) (A) (A) (A) (A) (A) (A) (A)
                 (A) (A) (A) (A) (A) (A) (A) (A) (A) (A) (A) (A)
                 (A) (A) (A) (A) (A) (A) (A) (A) (A) (A) (A) (A)
                 (A) (A) (A) (A) (A) (A) (A) (A) (A) (A) (A) (A)
                 (A) (A) (A) (A) (A) (A) (A) (A) (A) (A) (A) (A)
                 (A) (A) (A) (A)
       Virtual   (A) (A) (A) (A) (A) (A) (A) (A) (A) (A) (A) (A)
                 (A) (A) (A) (A) (A) (A) (A) (A) (A) (A) (A) (A)
                 (A) (A) (A) (A) (A) (A) (A) (A) (A) (A) (A) (A)
                 (A) (A) (A) (A) (A) (A) (A) (A) (A) (A) (A) (A)
                 (A) (A) (A) (A) (A) (A) (A) (A) (A) (A) (A) (A)
                 (A) (A) (A) (A) (A) (A) (A) (A) (A) (A) (A) (A)
                 (A) (A) (A) (A) (A) (A) (A) (A) (A) (A) (A) (A)
                 (A) (A) (A) (A) (A) (A) (A) (A) (A) (A) (A) (A)
                 (A) (A) (A) (A) (A) (A) (A) (A) (A) (A) (A) (A)
                 (A) (A) (A) (A) (A) (A) (A) (A) (A) (A) (A) (A)
                 (A) (A) (A) (A) (A) (A) (A) (A) (A) (A) (A) (A)
                 (A) (A) (A) (A) (A) (A) (A) (A) (A) (A) (A) (A)
                 (A) (A) (A) (A) (A) (A) (A) (A) (A) (A) (A) (A)
                 (A) (A) (A) (A) (A) (A) (A) (A) (A) (A) (A) (A)
                 (A) (A) (A) (A) (A) (A) (A) (A) (A) (A) (A) (A)
                 (A) (A) (A) (A) (A) (A) (A) (A) (A) (A) (A) (A)
                 (A) (A) (A) (A) (A) (A) (A) (A) (A) (A) (A) (A)
                 (A) (A) (A) (A) (A) (A) (A) (A) (A) (A) (A) (A)
                 (A) (A) (A) (A) (A) (A) (A) (A) (A) (A) (A) (A)
                 (A) (A) (A) (A) (A) (A) (A) (A) (A) (A) (A) (A)
                 (A) (A) (A) (A) (A) (A) (A) (A) (A) (A) (A) (A)
                 (A) (A) (A) (A) (A) (A) (A) (A) (A) (A) (A) (A)
                 (A) (A) (A) (A) (A) (A) (A) (A) (A) (A) (A) (A)
                 (A) (A) (A) (A) (A) (A) (A) (A) (A) (A) (A) (A)
                 (A) (A) (A) (A) (A) (A) (A) (A) (A) (A) (A) (A)
                 (A) (A) (A) (A) (A) (A) (A) (A) (A) (A) (A) (A)
                 (A) (A) (A) (A) (A) (A) (A) (A) (A) (A) (A) (A)
                 (A) (A) (A) (A) (A) (A) (A) (A) (A) (A) (A) (A)
                 (A) (A) (A) (A) (A) (A) (A) (A) (A) (A) (A) (A)
                 (A) (A) (A) (A) (A) (A) (A) (A) (A) (A) (A) (A)
                 (A) (A) (A) (A) (A) (A) (A) (A) (A) (A) (A) (A)
                 (A) (A) (A) (A) (A) (A) (A) (A) (A) (A) (A) (A)
                 (A) (A) (A) (A) (A) (A) (A) (A) (A) (A) (A) (A)
                 (A) (A) (A) (A) (A) (A) (A) (A) (A) (A) (A)
 The electronic state is 1-A.
 Alpha  occ. eigenvalues --  -19.26737 -19.26147 -19.25972 -19.24873 -19.19462
 Alpha  occ. eigenvalues --  -19.19325 -10.35863 -10.35676 -10.35606 -10.32133
 Alpha  occ. eigenvalues --  -10.30982 -10.30917 -10.28100 -10.26897 -10.26864
 Alpha  occ. eigenvalues --  -10.26585 -10.25639 -10.25295 -10.25079 -10.24598
 Alpha  occ. eigenvalues --  -10.24264  -1.15101  -1.14067  -1.13720  -1.09177
 Alpha  occ. eigenvalues --   -1.05838  -1.04917  -0.91054  -0.86957  -0.84105
 Alpha  occ. eigenvalues --   -0.80804  -0.78753  -0.76101  -0.75933  -0.71807
 Alpha  occ. eigenvalues --   -0.69132  -0.66815  -0.62430  -0.61435  -0.60735
 Alpha  occ. eigenvalues --   -0.59387  -0.57778  -0.56733  -0.55517  -0.53025
 Alpha  occ. eigenvalues --   -0.52316  -0.50660  -0.50419  -0.49548  -0.48863
 Alpha  occ. eigenvalues --   -0.48406  -0.47398  -0.46200  -0.45489  -0.45198
 Alpha  occ. eigenvalues --   -0.44608  -0.44152  -0.43386  -0.42739  -0.41280
 Alpha  occ. eigenvalues --   -0.40746  -0.40445  -0.39679  -0.38946  -0.38692
 Alpha  occ. eigenvalues --   -0.38024  -0.37118  -0.35595  -0.32627  -0.32402
 Alpha  occ. eigenvalues --   -0.32057  -0.30151  -0.29937  -0.29373  -0.28925
 Alpha  occ. eigenvalues --   -0.26272
 Alpha virt. eigenvalues --   -0.05958  -0.04290  -0.01203   0.03151   0.04278
 Alpha virt. eigenvalues --    0.05080   0.05486   0.06079   0.07196   0.07705
 Alpha virt. eigenvalues --    0.07775   0.08594   0.09061   0.09381   0.10281
 Alpha virt. eigenvalues --    0.10960   0.11055   0.11171   0.11396   0.11921
 Alpha virt. eigenvalues --    0.13032   0.13124   0.13290   0.14148   0.14453
 Alpha virt. eigenvalues --    0.15691   0.16006   0.17198   0.17401   0.18305
 Alpha virt. eigenvalues --    0.19223   0.19550   0.20182   0.21301   0.21716
 Alpha virt. eigenvalues --    0.22334   0.22681   0.23074   0.23552   0.24005
 Alpha virt. eigenvalues --    0.24373   0.24663   0.25448   0.26227   0.26596
 Alpha virt. eigenvalues --    0.26837   0.27747   0.28190   0.29280   0.29586
 Alpha virt. eigenvalues --    0.30284   0.30842   0.31196   0.32047   0.32586
 Alpha virt. eigenvalues --    0.32768   0.33165   0.33954   0.34396   0.34636
 Alpha virt. eigenvalues --    0.35368   0.35838   0.36210   0.37843   0.38020
 Alpha virt. eigenvalues --    0.38150   0.38893   0.39483   0.39832   0.40699
 Alpha virt. eigenvalues --    0.40888   0.41524   0.41799   0.42139   0.42572
 Alpha virt. eigenvalues --    0.43169   0.43477   0.44198   0.44301   0.44445
 Alpha virt. eigenvalues --    0.45552   0.45949   0.46107   0.46284   0.47165
 Alpha virt. eigenvalues --    0.47484   0.47945   0.48238   0.48471   0.49360
 Alpha virt. eigenvalues --    0.49896   0.50182   0.50973   0.51401   0.52150
 Alpha virt. eigenvalues --    0.52437   0.53271   0.53971   0.55058   0.55424
 Alpha virt. eigenvalues --    0.56387   0.56743   0.58214   0.58874   0.59566
 Alpha virt. eigenvalues --    0.60094   0.60842   0.62677   0.62782   0.63556
 Alpha virt. eigenvalues --    0.64356   0.64890   0.65851   0.66786   0.67455
 Alpha virt. eigenvalues --    0.68867   0.69395   0.70520   0.70854   0.71114
 Alpha virt. eigenvalues --    0.72568   0.73476   0.74504   0.75259   0.76538
 Alpha virt. eigenvalues --    0.77618   0.79031   0.80157   0.80497   0.81316
 Alpha virt. eigenvalues --    0.84431   0.85503   0.87030   0.91446   0.93076
 Alpha virt. eigenvalues --    0.96486   0.97888   0.99286   1.00835   1.03208
 Alpha virt. eigenvalues --    1.03477   1.13924   1.19309   1.21578   1.22927
 Alpha virt. eigenvalues --    1.23734   1.25193   1.25859   1.27671   1.28083
 Alpha virt. eigenvalues --    1.29086   1.29649   1.30234   1.30963   1.31163
 Alpha virt. eigenvalues --    1.31927   1.32261   1.32555   1.33319   1.33945
 Alpha virt. eigenvalues --    1.34070   1.35187   1.36075   1.36706   1.37041
 Alpha virt. eigenvalues --    1.38630   1.39339   1.40181   1.40492   1.41179
 Alpha virt. eigenvalues --    1.41403   1.42073   1.43358   1.44198   1.44938
 Alpha virt. eigenvalues --    1.46028   1.46232   1.46483   1.47894   1.48071
 Alpha virt. eigenvalues --    1.48839   1.49026   1.49915   1.50236   1.51286
 Alpha virt. eigenvalues --    1.51650   1.51938   1.52546   1.52877   1.53724
 Alpha virt. eigenvalues --    1.54009   1.55024   1.55488   1.56137   1.57024
 Alpha virt. eigenvalues --    1.57249   1.57928   1.58126   1.59322   1.60788
 Alpha virt. eigenvalues --    1.61108   1.61849   1.62554   1.63701   1.64103
 Alpha virt. eigenvalues --    1.65616   1.66229   1.68250   1.68634   1.70271
 Alpha virt. eigenvalues --    1.72117   1.72591   1.74659   1.75014   1.76712
 Alpha virt. eigenvalues --    1.77367   1.77938   1.78531   1.78939   1.79428
 Alpha virt. eigenvalues --    1.79487   1.79792   1.81427   1.82565   1.83058
 Alpha virt. eigenvalues --    1.83783   1.85009   1.86138   1.88264   1.90313
 Alpha virt. eigenvalues --    1.91005   1.92178   1.93595   1.94282   1.95633
 Alpha virt. eigenvalues --    1.97351   1.98067   1.98641   1.99261   2.00839
 Alpha virt. eigenvalues --    2.02122   2.02999   2.04375   2.04889   2.06159
 Alpha virt. eigenvalues --    2.06816   2.07406   2.09839   2.11694   2.12489
 Alpha virt. eigenvalues --    2.13443   2.14776   2.15780   2.16680   2.17778
 Alpha virt. eigenvalues --    2.18639   2.19542   2.20919   2.23414   2.24504
 Alpha virt. eigenvalues --    2.24815   2.26017   2.27132   2.28919   2.30118
 Alpha virt. eigenvalues --    2.31790   2.32460   2.33039   2.34863   2.35298
 Alpha virt. eigenvalues --    2.37168   2.38670   2.39475   2.39572   2.40809
 Alpha virt. eigenvalues --    2.41224   2.43642   2.44013   2.45852   2.47187
 Alpha virt. eigenvalues --    2.47664   2.49518   2.51984   2.52846   2.53526
 Alpha virt. eigenvalues --    2.54650   2.56453   2.56908   2.58073   2.58235
 Alpha virt. eigenvalues --    2.60220   2.61562   2.62684   2.63018   2.63761
 Alpha virt. eigenvalues --    2.65313   2.65582   2.65874   2.66441   2.67579
 Alpha virt. eigenvalues --    2.68311   2.70073   2.70297   2.71022   2.71287
 Alpha virt. eigenvalues --    2.73128   2.73719   2.74423   2.75425   2.75809
 Alpha virt. eigenvalues --    2.76653   2.76819   2.78464   2.79193   2.79929
 Alpha virt. eigenvalues --    2.81395   2.82566   2.84016   2.84200   2.86600
 Alpha virt. eigenvalues --    2.87466   2.87808   2.89299   2.93687   2.95158
 Alpha virt. eigenvalues --    2.95815   2.96712   2.97314   2.98572   2.99979
 Alpha virt. eigenvalues --    3.00916   3.01687   3.01793   3.03819   3.04080
 Alpha virt. eigenvalues --    3.05087   3.07057   3.08047   3.09616   3.11119
 Alpha virt. eigenvalues --    3.12162   3.12602   3.13923   3.16106   3.17255
 Alpha virt. eigenvalues --    3.19293   3.21098   3.21843   3.22265   3.23965
 Alpha virt. eigenvalues --    3.24754   3.26054   3.26519   3.27215   3.28476
 Alpha virt. eigenvalues --    3.29839   3.30184   3.31197   3.31554   3.31802
 Alpha virt. eigenvalues --    3.33183   3.35096   3.37152   3.38383   3.39837
 Alpha virt. eigenvalues --    3.41464   3.41918   3.44114   3.45926   3.47830
 Alpha virt. eigenvalues --    3.50748   3.52752   3.57645   3.60386   3.62430
 Alpha virt. eigenvalues --    3.62870   3.91567   3.95096   4.01716   4.02683
 Alpha virt. eigenvalues --    4.10380   4.15214   4.16731   4.22777   4.31042
 Alpha virt. eigenvalues --    4.33006  21.67358  21.75013  21.82465  21.97831
 Alpha virt. eigenvalues --   22.07262  22.08792  22.14319  22.16881  22.21770
 Alpha virt. eigenvalues --   22.23597  22.27712  22.29891  22.34547  22.41420
 Alpha virt. eigenvalues --   22.45017  43.65012  43.68859  43.75542  43.81018
 Alpha virt. eigenvalues --   43.88383  43.95199
          Condensed to atoms (all electrons):
               1          2          3          4          5          6
     1  C    5.454522   0.122696  -0.176403   0.058059   0.063387   0.007443
     2  O    0.122696   7.886234   0.326367  -0.099078   0.005014  -0.014010
     3  C   -0.176403   0.326367   5.161369   0.304078  -0.152960   0.048560
     4  C    0.058059  -0.099078   0.304078   7.016938  -0.251683  -0.198048
     5  C    0.063387   0.005014  -0.152960  -0.251683   5.943300   0.277973
     6  C    0.007443  -0.014010   0.048560  -0.198048   0.277973   5.542550
     7  C   -0.073119   0.014732   0.003268   0.095246  -0.075895   0.142467
     8  C    0.391384  -0.072111  -0.041954  -0.022659   0.156317   0.229205
     9  C   -0.226321   0.044657   0.123201   0.116789  -0.577700  -0.094419
    10  C   -0.330080   0.043596   0.012034  -0.011424   0.087547  -0.089096
    11  O    0.378609  -0.073530   0.006784  -0.006014   0.003409   0.005545
    12  C    0.010201   0.012066  -0.096745  -0.234089  -0.004782  -0.051487
    13  O    0.000019  -0.000058   0.004066  -0.254896   0.024406  -0.001782
    14  O    0.000620   0.000400   0.000106  -0.171806   0.012424   0.000163
    15  C   -0.000048   0.000017  -0.000123  -0.002694  -0.005020   0.000098
    16  O   -0.012205   0.000152  -0.000157  -0.000676   0.007078   0.001904
    17  C   -0.001104   0.000030   0.000136  -0.000045  -0.000085   0.001594
    18  C    0.041798  -0.001691   0.000973  -0.002082  -0.013548   0.019968
    19  C   -0.001888   0.000268  -0.000091   0.000010   0.000195   0.000494
    20  C    0.000227  -0.000068   0.000005  -0.000004  -0.000067   0.000031
    21  O    0.000032  -0.000000   0.000000   0.000000  -0.000001  -0.000015
    22  H    0.001529  -0.027634   0.438807  -0.073937   0.010061   0.001890
    23  H    0.372761  -0.054333   0.017724  -0.015849   0.000588   0.004931
    24  H   -0.028328   0.005354   0.004582  -0.003199   0.021524  -0.018048
    25  H   -0.004667  -0.000566   0.010931  -0.059780   0.400589   0.007345
    26  H    0.003295   0.008044  -0.002431   0.001990   0.002724  -0.001735
    27  H    0.001117  -0.000423   0.000955   0.000748  -0.029946   0.375644
    28  H    0.001183   0.000129  -0.000180   0.001219   0.008486  -0.044652
    29  H   -0.000096   0.000000   0.000001  -0.000001   0.000005  -0.000004
    30  H   -0.000572   0.000159   0.000016  -0.000005   0.000012  -0.000004
    31  H    0.000035  -0.000001  -0.000000   0.000000   0.000000  -0.000001
    32  H   -0.000048   0.000001  -0.000000   0.000000  -0.000000   0.000001
    33  H   -0.000003  -0.000000   0.000235  -0.004706   0.000075  -0.000013
    34  H   -0.000001  -0.000000   0.000086   0.003984  -0.000969  -0.000042
    35  H   -0.000003  -0.000000  -0.000011  -0.001867  -0.000145   0.000022
               7          8          9         10         11         12
     1  C   -0.073119   0.391384  -0.226321  -0.330080   0.378609   0.010201
     2  O    0.014732  -0.072111   0.044657   0.043596  -0.073530   0.012066
     3  C    0.003268  -0.041954   0.123201   0.012034   0.006784  -0.096745
     4  C    0.095246  -0.022659   0.116789  -0.011424  -0.006014  -0.234089
     5  C   -0.075895   0.156317  -0.577700   0.087547   0.003409  -0.004782
     6  C    0.142467   0.229205  -0.094419  -0.089096   0.005545  -0.051487
     7  C    5.684605  -0.312518   0.176461   0.247775  -0.004097   0.009619
     8  C   -0.312518   6.874007  -0.839303  -0.742085   0.028412   0.005136
     9  C    0.176461  -0.839303   7.286197  -0.082157  -0.093422  -0.016755
    10  C    0.247775  -0.742085  -0.082157   7.056091   0.175000   0.001020
    11  O   -0.004097   0.028412  -0.093422   0.175000   7.890826  -0.000434
    12  C    0.009619   0.005136  -0.016755   0.001020  -0.000434   5.298345
    13  O   -0.000454   0.000255   0.000715  -0.000011  -0.000000   0.377120
    14  O   -0.000200   0.000083  -0.001650  -0.000003  -0.000000   0.654618
    15  C   -0.000007   0.000017   0.000183   0.000002  -0.000000  -0.053777
    16  O   -0.087918   0.204643  -0.076254   0.054127  -0.014022   0.000034
    17  C    0.003071  -0.071753   0.007778   0.093867   0.006270   0.000004
    18  C   -0.066250   0.308230   0.040136  -0.747105  -0.077763  -0.000132
    19  C   -0.005525  -0.021555   0.002510  -0.118894   0.002971   0.000000
    20  C   -0.000167   0.005024   0.000378  -0.026383  -0.000433  -0.000000
    21  O    0.000979  -0.000128   0.000517   0.006547  -0.000066   0.000000
    22  H   -0.000678   0.000623  -0.003526  -0.000144  -0.000342  -0.021250
    23  H   -0.006286   0.000030  -0.008447   0.011655  -0.047071  -0.002145
    24  H    0.030022  -0.062370   0.352475   0.019911   0.003455  -0.000273
    25  H   -0.012761  -0.007004   0.002610   0.000325  -0.000266  -0.016736
    26  H    0.010782   0.030940  -0.028910   0.322172  -0.043543   0.000189
    27  H   -0.026708   0.013378   0.003229  -0.002203   0.000095  -0.002390
    28  H    0.402811  -0.016570   0.006583  -0.007738  -0.000056   0.000116
    29  H    0.000019  -0.002026   0.000170   0.021502  -0.000379  -0.000000
    30  H   -0.000031  -0.000374   0.000175   0.009305   0.000832  -0.000000
    31  H    0.000023   0.000012  -0.000017  -0.000877   0.000074   0.000000
    32  H   -0.000011  -0.000276   0.000037   0.001456   0.000051   0.000000
    33  H   -0.000042  -0.000002   0.000044   0.000000   0.000000  -0.010744
    34  H    0.000034  -0.000006   0.000020  -0.000000  -0.000000   0.008791
    35  H    0.000017  -0.000001   0.000038  -0.000000   0.000000  -0.013123
              13         14         15         16         17         18
     1  C    0.000019   0.000620  -0.000048  -0.012205  -0.001104   0.041798
     2  O   -0.000058   0.000400   0.000017   0.000152   0.000030  -0.001691
     3  C    0.004066   0.000106  -0.000123  -0.000157   0.000136   0.000973
     4  C   -0.254896  -0.171806  -0.002694  -0.000676  -0.000045  -0.002082
     5  C    0.024406   0.012424  -0.005020   0.007078  -0.000085  -0.013548
     6  C   -0.001782   0.000163   0.000098   0.001904   0.001594   0.019968
     7  C   -0.000454  -0.000200  -0.000007  -0.087918   0.003071  -0.066250
     8  C    0.000255   0.000083   0.000017   0.204643  -0.071753   0.308230
     9  C    0.000715  -0.001650   0.000183  -0.076254   0.007778   0.040136
    10  C   -0.000011  -0.000003   0.000002   0.054127   0.093867  -0.747105
    11  O   -0.000000  -0.000000  -0.000000  -0.014022   0.006270  -0.077763
    12  C    0.377120   0.654618  -0.053777   0.000034   0.000004  -0.000132
    13  O    8.034929  -0.107300   0.196199  -0.000000   0.000000  -0.000000
    14  O   -0.107300   7.893697   0.012210  -0.000000   0.000000  -0.000000
    15  C    0.196199   0.012210   4.837802   0.000000   0.000000  -0.000000
    16  O   -0.000000  -0.000000   0.000000   7.966746   0.311547  -0.208805
    17  C    0.000000   0.000000   0.000000   0.311547   4.964985  -0.039169
    18  C   -0.000000  -0.000000  -0.000000  -0.208805  -0.039169   6.557458
    19  C   -0.000000   0.000000  -0.000000   0.016485  -0.114479   0.462790
    20  C   -0.000000  -0.000000   0.000000  -0.000437   0.009023  -0.011375
    21  O    0.000000  -0.000000   0.000000  -0.082861   0.670261  -0.131926
    22  H    0.001311   0.014827  -0.000218  -0.000002   0.000003   0.000007
    23  H   -0.000002   0.000005  -0.000003  -0.000775   0.000064   0.001719
    24  H   -0.000058  -0.000008  -0.000000   0.013846  -0.002299  -0.001126
    25  H    0.006361   0.000155  -0.000238   0.000668   0.000062   0.000098
    26  H    0.000001   0.000001   0.000000   0.001659   0.012242  -0.040862
    27  H    0.006656  -0.000006  -0.000296  -0.000155   0.000074   0.000077
    28  H   -0.000019  -0.000000  -0.000001   0.000993  -0.001649  -0.001151
    29  H   -0.000000   0.000000  -0.000000   0.001793  -0.013422   0.008745
    30  H    0.000000   0.000000  -0.000000   0.000034   0.000570   0.020618
    31  H    0.000000   0.000000   0.000000   0.000010  -0.000707  -0.009618
    32  H    0.000000  -0.000000   0.000000   0.000016   0.000367  -0.006377
    33  H   -0.033230   0.004922   0.417672   0.000000   0.000000  -0.000000
    34  H   -0.034381   0.002217   0.387933   0.000000  -0.000000   0.000000
    35  H   -0.032070   0.004307   0.417849  -0.000000  -0.000000   0.000000
              19         20         21         22         23         24
     1  C   -0.001888   0.000227   0.000032   0.001529   0.372761  -0.028328
     2  O    0.000268  -0.000068  -0.000000  -0.027634  -0.054333   0.005354
     3  C   -0.000091   0.000005   0.000000   0.438807   0.017724   0.004582
     4  C    0.000010  -0.000004   0.000000  -0.073937  -0.015849  -0.003199
     5  C    0.000195  -0.000067  -0.000001   0.010061   0.000588   0.021524
     6  C    0.000494   0.000031  -0.000015   0.001890   0.004931  -0.018048
     7  C   -0.005525  -0.000167   0.000979  -0.000678  -0.006286   0.030022
     8  C   -0.021555   0.005024  -0.000128   0.000623   0.000030  -0.062370
     9  C    0.002510   0.000378   0.000517  -0.003526  -0.008447   0.352475
    10  C   -0.118894  -0.026383   0.006547  -0.000144   0.011655   0.019911
    11  O    0.002971  -0.000433  -0.000066  -0.000342  -0.047071   0.003455
    12  C    0.000000  -0.000000   0.000000  -0.021250  -0.002145  -0.000273
    13  O   -0.000000  -0.000000   0.000000   0.001311  -0.000002  -0.000058
    14  O    0.000000  -0.000000  -0.000000   0.014827   0.000005  -0.000008
    15  C   -0.000000   0.000000   0.000000  -0.000218  -0.000003  -0.000000
    16  O    0.016485  -0.000437  -0.082861  -0.000002  -0.000775   0.013846
    17  C   -0.114479   0.009023   0.670261   0.000003   0.000064  -0.002299
    18  C    0.462790  -0.011375  -0.131926   0.000007   0.001719  -0.001126
    19  C    5.336695   0.238826   0.005065  -0.000002   0.000102  -0.000123
    20  C    0.238826   5.002172   0.000998   0.000000   0.000049   0.000006
    21  O    0.005065   0.000998   7.797809  -0.000000   0.000012  -0.000315
    22  H   -0.000002   0.000000  -0.000000   0.500478   0.000743   0.000026
    23  H    0.000102   0.000049   0.000012   0.000743   0.582770  -0.007887
    24  H   -0.000123   0.000006  -0.000315   0.000026  -0.007887   0.467862
    25  H    0.000000   0.000000  -0.000000  -0.000083   0.000485  -0.001293
    26  H   -0.010503  -0.000946  -0.000271   0.000062  -0.000712  -0.000231
    27  H   -0.000006   0.000000  -0.000001   0.000001   0.000055  -0.000683
    28  H   -0.000352  -0.000011  -0.000187  -0.000006   0.000012  -0.000270
    29  H    0.338182  -0.043091   0.017595   0.000000  -0.000003   0.000006
    30  H   -0.084689   0.428587   0.000011  -0.000000  -0.000003  -0.000003
    31  H   -0.024144   0.398134   0.000025  -0.000000  -0.000001  -0.000000
    32  H   -0.020217   0.390066   0.000053   0.000000   0.000001  -0.000001
    33  H    0.000000   0.000000  -0.000000  -0.000026   0.000000   0.000000
    34  H   -0.000000  -0.000000   0.000000  -0.000004  -0.000000   0.000001
    35  H   -0.000000   0.000000  -0.000000  -0.000011   0.000000  -0.000001
              25         26         27         28         29         30
     1  C   -0.004667   0.003295   0.001117   0.001183  -0.000096  -0.000572
     2  O   -0.000566   0.008044  -0.000423   0.000129   0.000000   0.000159
     3  C    0.010931  -0.002431   0.000955  -0.000180   0.000001   0.000016
     4  C   -0.059780   0.001990   0.000748   0.001219  -0.000001  -0.000005
     5  C    0.400589   0.002724  -0.029946   0.008486   0.000005   0.000012
     6  C    0.007345  -0.001735   0.375644  -0.044652  -0.000004  -0.000004
     7  C   -0.012761   0.010782  -0.026708   0.402811   0.000019  -0.000031
     8  C   -0.007004   0.030940   0.013378  -0.016570  -0.002026  -0.000374
     9  C    0.002610  -0.028910   0.003229   0.006583   0.000170   0.000175
    10  C    0.000325   0.322172  -0.002203  -0.007738   0.021502   0.009305
    11  O   -0.000266  -0.043543   0.000095  -0.000056  -0.000379   0.000832
    12  C   -0.016736   0.000189  -0.002390   0.000116  -0.000000  -0.000000
    13  O    0.006361   0.000001   0.006656  -0.000019  -0.000000   0.000000
    14  O    0.000155   0.000001  -0.000006  -0.000000   0.000000   0.000000
    15  C   -0.000238   0.000000  -0.000296  -0.000001  -0.000000  -0.000000
    16  O    0.000668   0.001659  -0.000155   0.000993   0.001793   0.000034
    17  C    0.000062   0.012242   0.000074  -0.001649  -0.013422   0.000570
    18  C    0.000098  -0.040862   0.000077  -0.001151   0.008745   0.020618
    19  C    0.000000  -0.010503  -0.000006  -0.000352   0.338182  -0.084689
    20  C    0.000000  -0.000946   0.000000  -0.000011  -0.043091   0.428587
    21  O   -0.000000  -0.000271  -0.000001  -0.000187   0.017595   0.000011
    22  H   -0.000083   0.000062   0.000001  -0.000006   0.000000  -0.000000
    23  H    0.000485  -0.000712   0.000055   0.000012  -0.000003  -0.000003
    24  H   -0.001293  -0.000231  -0.000683  -0.000270   0.000006  -0.000003
    25  H    0.489474  -0.000034   0.002344  -0.000458   0.000000   0.000000
    26  H   -0.000034   0.575787  -0.000150   0.000239  -0.000349  -0.000386
    27  H    0.002344  -0.000150   0.508303  -0.003076   0.000000  -0.000000
    28  H   -0.000458   0.000239  -0.003076   0.532452   0.000009   0.000005
    29  H    0.000000  -0.000349   0.000000   0.000009   0.508243   0.002482
    30  H    0.000000  -0.000386  -0.000000   0.000005   0.002482   0.500865
    31  H   -0.000000  -0.000244  -0.000000   0.000001  -0.000070  -0.020536
    32  H   -0.000000   0.000291   0.000000  -0.000000   0.001250  -0.017234
    33  H    0.000063   0.000000   0.000007   0.000000   0.000000  -0.000000
    34  H   -0.000041  -0.000000  -0.000172   0.000001  -0.000000  -0.000000
    35  H    0.000024  -0.000000   0.000075  -0.000000  -0.000000  -0.000000
              31         32         33         34         35
     1  C    0.000035  -0.000048  -0.000003  -0.000001  -0.000003
     2  O   -0.000001   0.000001  -0.000000  -0.000000  -0.000000
     3  C   -0.000000  -0.000000   0.000235   0.000086  -0.000011
     4  C    0.000000   0.000000  -0.004706   0.003984  -0.001867
     5  C    0.000000  -0.000000   0.000075  -0.000969  -0.000145
     6  C   -0.000001   0.000001  -0.000013  -0.000042   0.000022
     7  C    0.000023  -0.000011  -0.000042   0.000034   0.000017
     8  C    0.000012  -0.000276  -0.000002  -0.000006  -0.000001
     9  C   -0.000017   0.000037   0.000044   0.000020   0.000038
    10  C   -0.000877   0.001456   0.000000  -0.000000  -0.000000
    11  O    0.000074   0.000051   0.000000  -0.000000   0.000000
    12  C    0.000000   0.000000  -0.010744   0.008791  -0.013123
    13  O    0.000000   0.000000  -0.033230  -0.034381  -0.032070
    14  O    0.000000  -0.000000   0.004922   0.002217   0.004307
    15  C    0.000000   0.000000   0.417672   0.387933   0.417849
    16  O    0.000010   0.000016   0.000000   0.000000  -0.000000
    17  C   -0.000707   0.000367   0.000000  -0.000000  -0.000000
    18  C   -0.009618  -0.006377  -0.000000   0.000000   0.000000
    19  C   -0.024144  -0.020217   0.000000  -0.000000  -0.000000
    20  C    0.398134   0.390066   0.000000  -0.000000   0.000000
    21  O    0.000025   0.000053  -0.000000   0.000000  -0.000000
    22  H   -0.000000   0.000000  -0.000026  -0.000004  -0.000011
    23  H   -0.000001   0.000001   0.000000  -0.000000   0.000000
    24  H   -0.000000  -0.000001   0.000000   0.000001  -0.000001
    25  H   -0.000000  -0.000000   0.000063  -0.000041   0.000024
    26  H   -0.000244   0.000291   0.000000  -0.000000  -0.000000
    27  H   -0.000000   0.000000   0.000007  -0.000172   0.000075
    28  H    0.000001  -0.000000   0.000000   0.000001  -0.000000
    29  H   -0.000070   0.001250   0.000000  -0.000000  -0.000000
    30  H   -0.020536  -0.017234  -0.000000  -0.000000  -0.000000
    31  H    0.547855  -0.030974  -0.000000   0.000000   0.000000
    32  H   -0.030974   0.533688   0.000000   0.000000  -0.000000
    33  H   -0.000000   0.000000   0.550880  -0.026779  -0.035614
    34  H    0.000000   0.000000  -0.026779   0.549123  -0.026202
    35  H    0.000000  -0.000000  -0.035614  -0.026202   0.547922
 Mulliken charges:
               1
     1  C   -0.054032
     2  O   -0.126412
     3  C    0.006770
     4  C   -0.184520
     5  C    0.087688
     6  C   -0.154474
     7  C   -0.149261
     8  C   -0.035001
     9  C   -0.116023
    10  C   -0.005733
    11  O   -0.140898
    12  C    0.147603
    13  O   -0.187779
    14  O   -0.319782
    15  C   -0.207558
    16  O   -0.097469
    17  C    0.162759
    18  C   -0.103636
    19  C   -0.002126
    20  C   -0.390545
    21  O   -0.284135
    22  H    0.157495
    23  H    0.149810
    24  H    0.207446
    25  H    0.182390
    26  H    0.160890
    27  H    0.153455
    28  H    0.122135
    29  H    0.159438
    30  H    0.160165
    31  H    0.141020
    32  H    0.147861
    33  H    0.137259
    34  H    0.136407
    35  H    0.138794
 Sum of Mulliken charges =  -0.00000
 Mulliken charges with hydrogens summed into heavy atoms:
               1
     1  C    0.095778
     2  O   -0.126412
     3  C    0.164265
     4  C   -0.184520
     5  C    0.270077
     6  C   -0.001019
     7  C   -0.027126
     8  C   -0.035001
     9  C    0.091423
    10  C    0.155158
    11  O   -0.140898
    12  C    0.147603
    13  O   -0.187779
    14  O   -0.319782
    15  C    0.204901
    16  O   -0.097469
    17  C    0.162759
    18  C   -0.103636
    19  C    0.157312
    20  C    0.058501
    21  O   -0.284135
 Electronic spatial extent (au):  <R**2>=           6760.0210
 Charge=             -0.0000 electrons
 Dipole moment (field-independent basis, Debye):
    X=              0.9998    Y=              1.0308    Z=              1.8116  Tot=              2.3117
 Quadrupole moment (field-independent basis, Debye-Ang):
   XX=           -120.9331   YY=           -130.9630   ZZ=           -114.6244
   XY=            -27.3208   XZ=             -9.6352   YZ=             -3.7127
 Traceless Quadrupole moment (field-independent basis, Debye-Ang):
   XX=              1.2404   YY=             -8.7895   ZZ=              7.5491
   XY=            -27.3208   XZ=             -9.6352   YZ=             -3.7127
 Octapole moment (field-independent basis, Debye-Ang**2):
  XXX=             19.2818  YYY=             22.0241  ZZZ=             -8.7217  XYY=             31.0951
  XXY=              7.1189  XXZ=             41.4782  XZZ=              7.1177  YZZ=              1.0140
  YYZ=             11.1018  XYZ=              0.4116
 Hexadecapole moment (field-independent basis, Debye-Ang**3):
 XXXX=          -6496.2713 YYYY=          -1423.9519 ZZZZ=           -451.0881 XXXY=           -703.5687
 XXXZ=           -127.2685 YYYX=            -87.0328 YYYZ=            -15.2051 ZZZX=             14.2810
 ZZZY=            -10.2810 XXYY=          -1492.3363 XXZZ=          -1214.5180 YYZZ=           -295.5445
 XXYZ=            -43.3013 YYXZ=            -33.8934 ZZXY=            -10.1946
 N-N= 1.726374518485D+03 E-N=-5.862378999811D+03  KE= 1.025694605085D+03
 1\1\ WCSS.PL-BEM-C2\SP\RPBE1PBE TD-FC\TZVP\C15H14O6\LT\30-Mar-2017\0\\
 # PBE1PBE/TZVP TD(nstates=20)\\Plumericin conformation 1b: ECD\\0,1\C,
 0,-0.262798,1.194861,-1.116533\O,0,0.550555,2.090894,-0.312449\C,0,1.8
 44139,1.774779,-0.120755\C,0,2.360071,0.53236,-0.187467\C,0,1.46059,-0
 .671466,-0.371886\C,0,1.116967,-1.317177,0.962181\C,0,-0.192399,-1.359
 778,1.211022\C,0,-0.995188,-0.78442,0.081269\C,0,0.062094,-0.29963,-0.
 945255\C,0,-1.887949,0.457428,0.352441\O,0,-1.586548,1.36897,-0.730877
 \C,0,3.8077,0.396285,0.054895\O,0,4.183428,-0.911417,0.089989\O,0,4.59
 491,1.311723,0.213158\C,0,5.582851,-1.137512,0.317051\O,0,-1.883304,-1
 .787076,-0.479908\C,0,-3.202921,-1.429949,-0.366356\C,0,-3.281977,-0.0
 65374,0.222285\C,0,-4.44963,0.51607,0.522633\C,0,-4.641942,1.886116,1.
 087656\O,0,-4.09886,-2.160451,-0.709545\H,0,2.457436,2.638468,0.117643
 \H,0,-0.167396,1.550688,-2.145857\H,0,-0.116535,-0.795524,-1.902208\H,
 0,1.963461,-1.400987,-1.016246\H,0,-1.662294,0.940463,1.308366\H,0,1.8
 98488,-1.673285,1.625915\H,0,-0.662146,-1.770864,2.099525\H,0,-5.34622
 7,-0.071102,0.322432\H,0,-3.696508,2.406768,1.260848\H,0,-5.202111,1.8
 3993,2.030917\H,0,-5.243683,2.495003,0.399929\H,0,5.889099,-0.720077,1
 .27998\H,0,5.709111,-2.22075,0.310124\H,0,6.180218,-0.675423,-0.473402
 \\Version=ES64L-G09RevE.01\State=1-A\HF=-1030.5306629\RMSD=8.633e-09\P
 G=C01 [X(C15H14O6)]\\@


            ARSENIC

 FOR SMELTER FUMES HAVE I BEEN NAMED,
    I AM AN EVIL POISONOUS SMOKE...
 BUT WHEN FROM POISON I AM FREED,
    THROUGH ART AND SLEIGHT OF HAND,
 THEN CAN I CURE BOTH MAN AND BEAST,
    FROM DIRE DISEASE OFTTIMES DIRECT THEM;
 BUT PREPARE ME CORRECTLY, AND TAKE GREAT CARE
    THAT YOU FAITHFULLY KEEP WATCHFUL GUARD OVER ME;
 FOR ELSE I AM POISON, AND POISON REMAIN,
    THAT PIERCES THE HEART OF MANY A ONE.

 ATTRIBUTED TO THE PROBABLY MYTHICAL 15TH
 CENTURY MONK, BASILIUS VALENTINUS
 Job cpu time:       0 days  3 hours 14 minutes 38.1 seconds.
 File lengths (MBytes):  RWF=   1004 Int=      0 D2E=      0 Chk=    159 Scr=      1
 Normal termination of Gaussian 09 at Thu Mar 30 14:24:32 2017.
