 Entering Gaussian System, Link 0=g09
 Initial command:
 /home/chen/bkd/g09E01/g09/l1.exe "/home/chen/lt/g09scr/Gau-25793.inp" -scrdir="/home/chen/lt/g09scr/"
 Entering Link 1 = /home/chen/bkd/g09E01/g09/l1.exe PID=     25794.
  
 Copyright (c) 1988,1990,1992,1993,1995,1998,2003,2009,2015,
            Gaussian, Inc.  All Rights Reserved.
  
 This is part of the Gaussian(R) 09 program.  It is based on
 the Gaussian(R) 03 system (copyright 2003, Gaussian, Inc.),
 the Gaussian(R) 98 system (copyright 1998, Gaussian, Inc.),
 the Gaussian(R) 94 system (copyright 1995, Gaussian, Inc.),
 the Gaussian 92(TM) system (copyright 1992, Gaussian, Inc.),
 the Gaussian 90(TM) system (copyright 1990, Gaussian, Inc.),
 the Gaussian 88(TM) system (copyright 1988, Gaussian, Inc.),
 the Gaussian 86(TM) system (copyright 1986, Carnegie Mellon
 University), and the Gaussian 82(TM) system (copyright 1983,
 Carnegie Mellon University). Gaussian is a federally registered
 trademark of Gaussian, Inc.
  
 This software contains proprietary and confidential information,
 including trade secrets, belonging to Gaussian, Inc.
  
 This software is provided under written license and may be
 used, copied, transmitted, or stored only in accord with that
 written license.
  
 The following legend is applicable only to US Government
 contracts under FAR:
  
                    RESTRICTED RIGHTS LEGEND
  
 Use, reproduction and disclosure by the US Government is
 subject to restrictions as set forth in subparagraphs (a)
 and (c) of the Commercial Computer Software - Restricted
 Rights clause in FAR 52.227-19.
  
 Gaussian, Inc.
 340 Quinnipiac St., Bldg. 40, Wallingford CT 06492
  
  
 ---------------------------------------------------------------
 Warning -- This program may not be used in any manner that
 competes with the business of Gaussian, Inc. or will provide
 assistance to any competitor of Gaussian, Inc.  The licensee
 of this program is prohibited from giving any competitor of
 Gaussian, Inc. access to this program.  By using this program,
 the user acknowledges that Gaussian, Inc. is engaged in the
 business of creating and licensing software in the field of
 computational chemistry and represents and warrants to the
 licensee that it is not a competitor of Gaussian, Inc. and that
 it will not use this program in any manner prohibited above.
 ---------------------------------------------------------------
  

 Cite this work as:
 Gaussian 09, Revision E.01,
 M. J. Frisch, G. W. Trucks, H. B. Schlegel, G. E. Scuseria, 
 M. A. Robb, J. R. Cheeseman, G. Scalmani, V. Barone, B. Mennucci, 
 G. A. Petersson, H. Nakatsuji, M. Caricato, X. Li, H. P. Hratchian, 
 A. F. Izmaylov, J. Bloino, G. Zheng, J. L. Sonnenberg, M. Hada, 
 M. Ehara, K. Toyota, R. Fukuda, J. Hasegawa, M. Ishida, T. Nakajima, 
 Y. Honda, O. Kitao, H. Nakai, T. Vreven, J. A. Montgomery, Jr., 
 J. E. Peralta, F. Ogliaro, M. Bearpark, J. J. Heyd, E. Brothers, 
 K. N. Kudin, V. N. Staroverov, T. Keith, R. Kobayashi, J. Normand, 
 K. Raghavachari, A. Rendell, J. C. Burant, S. S. Iyengar, J. Tomasi, 
 M. Cossi, N. Rega, J. M. Millam, M. Klene, J. E. Knox, J. B. Cross, 
 V. Bakken, C. Adamo, J. Jaramillo, R. Gomperts, R. E. Stratmann, 
 O. Yazyev, A. J. Austin, R. Cammi, C. Pomelli, J. W. Ochterski, 
 R. L. Martin, K. Morokuma, V. G. Zakrzewski, G. A. Voth, 
 P. Salvador, J. J. Dannenberg, S. Dapprich, A. D. Daniels, 
 O. Farkas, J. B. Foresman, J. V. Ortiz, J. Cioslowski, 
 and D. J. Fox, Gaussian, Inc., Wallingford CT, 2013.
 
 ******************************************
 Gaussian 09:  ES64L-G09RevE.01 30-Nov-2015
                30-Mar-2017 
 ******************************************
 %mem=30GB
 %nprocshared=16
 Will use up to   16 processors via shared memory.
 -----------------------------
 # PBE1PBE/TZVP TD(nstates=20)
 -----------------------------
 1/38=1/1;
 2/12=2,17=6,18=5,40=1/2;
 3/5=19,7=101,11=9,16=1,25=1,30=1,74=-13/1,2,8,3;
 4//1;
 5/5=2,38=5/2;
 8/6=1,10=1,108=20/1;
 9/41=20,42=1,70=2/14;
 6/7=2,8=2,9=2,10=2/1;
 99/5=1,9=1/99;
 -------------------------------
 Plumericin conformation 1c: ECD
 -------------------------------
 Symbolic Z-matrix:
 Charge =  0 Multiplicity = 1
 C                    -0.42011   0.99966  -0.89764 
 O                     0.69711   1.83755  -1.10751 
 C                     1.90752   1.41592  -0.67521 
 C                     2.23616   0.15069  -0.36197 
 C                     1.25412  -0.99236  -0.51036 
 C                     1.02139  -1.80721   0.74862 
 C                    -0.26427  -1.87944   1.08964 
 C                    -1.1363   -1.06252   0.18632 
 C                    -0.17608  -0.52438  -0.91697 
 C                    -1.75483   0.2241    0.81814 
 O                    -0.93872   1.30885   0.38958 
 C                     3.61716  -0.19347   0.02105 
 O                     4.00606  -1.33554   0.19816 
 O                     4.42676   0.8869    0.15588 
 C                     5.78742   0.59271   0.50517 
 O                    -2.23875  -1.83158  -0.34436 
 C                    -3.41138  -1.11657  -0.34327 
 C                    -3.17066   0.20322   0.29788 
 C                    -4.11974   1.14717   0.34648 
 C                    -3.98728   2.50859   0.9507 
 O                    -4.43118  -1.56057  -0.80948 
 H                     2.62147   2.23051  -0.65293 
 H                    -1.13204   1.3024   -1.67358 
 H                    -0.45609  -0.93595  -1.88847 
 H                     1.66065  -1.66232  -1.28153 
 H                    -1.71282   0.22215   1.91176 
 H                     1.8482   -2.27926   1.26644 
 H                    -0.67712  -2.4239    1.93343 
 H                    -5.07929   0.89084  -0.10397 
 H                    -2.97903   2.70338   1.32182 
 H                    -4.70521   2.63103   1.77321 
 H                    -4.23622   3.27935   0.20934 
 H                     6.25923  -0.02527  -0.26362 
 H                     6.28501   1.56047   0.57698 
 H                     5.83441   0.06503   1.46146 
 
                          Input orientation:                          
 ---------------------------------------------------------------------
 Center     Atomic      Atomic             Coordinates (Angstroms)
 Number     Number       Type             X           Y           Z
 ---------------------------------------------------------------------
      1          6           0       -0.420110    0.999663   -0.897637
      2          8           0        0.697106    1.837553   -1.107506
      3          6           0        1.907518    1.415915   -0.675213
      4          6           0        2.236160    0.150691   -0.361973
      5          6           0        1.254120   -0.992361   -0.510355
      6          6           0        1.021389   -1.807208    0.748621
      7          6           0       -0.264273   -1.879443    1.089639
      8          6           0       -1.136304   -1.062519    0.186317
      9          6           0       -0.176075   -0.524384   -0.916966
     10          6           0       -1.754829    0.224099    0.818136
     11          8           0       -0.938722    1.308851    0.389582
     12          6           0        3.617158   -0.193465    0.021050
     13          8           0        4.006064   -1.335544    0.198159
     14          8           0        4.426756    0.886903    0.155876
     15          6           0        5.787418    0.592707    0.505174
     16          8           0       -2.238753   -1.831579   -0.344356
     17          6           0       -3.411381   -1.116568   -0.343273
     18          6           0       -3.170659    0.203215    0.297878
     19          6           0       -4.119743    1.147172    0.346478
     20          6           0       -3.987278    2.508588    0.950700
     21          8           0       -4.431178   -1.560569   -0.809482
     22          1           0        2.621468    2.230509   -0.652932
     23          1           0       -1.132043    1.302399   -1.673575
     24          1           0       -0.456089   -0.935948   -1.888465
     25          1           0        1.660654   -1.662319   -1.281534
     26          1           0       -1.712823    0.222152    1.911762
     27          1           0        1.848203   -2.279260    1.266443
     28          1           0       -0.677117   -2.423897    1.933434
     29          1           0       -5.079286    0.890844   -0.103965
     30          1           0       -2.979025    2.703384    1.321822
     31          1           0       -4.705213    2.631027    1.773206
     32          1           0       -4.236220    3.279347    0.209340
     33          1           0        6.259230   -0.025265   -0.263615
     34          1           0        6.285006    1.560472    0.576977
     35          1           0        5.834410    0.065027    1.461462
 ---------------------------------------------------------------------
                    Distance matrix (angstroms):
                    1          2          3          4          5
     1  C    0.000000
     2  O    1.412188   0.000000
     3  C    2.374993   1.352684   0.000000
     4  C    2.839623   2.402085   1.344216   0.000000
     5  C    2.630816   2.945381   2.500780   1.514261   0.000000
     6  C    3.559018   4.103005   3.633325   2.557823   1.517617
     7  C    3.501828   4.423546   4.323282   3.532816   2.377480
     8  C    2.437311   3.666850   4.018672   3.625743   2.490863
     9  C    1.543582   2.525371   2.857370   2.565662   1.558779
    10  C    2.307997   3.510458   4.130775   4.162456   3.506913
    11  O    1.421791   2.279634   3.040778   3.462087   3.303637
    12  C    4.308953   3.731672   2.449031   1.473874   2.550407
    13  O    5.122985   4.766813   3.568921   2.378067   2.862335
    14  O    4.961322   4.050945   2.705018   2.368309   3.747148
    15  C    6.377060   5.482851   4.138189   3.682222   4.908618
    16  O    3.410207   4.760693   5.277049   4.894339   3.596110
    17  C    3.705868   5.117670   5.900368   5.788006   4.670144
    18  C    3.103080   4.427840   5.310878   5.447188   4.654171
    19  C    3.906004   5.078654   6.119146   6.472432   5.847236
    20  C    4.291607   5.160422   6.211775   6.783360   6.470207
    21  O    4.759330   6.159168   7.004038   6.897976   5.721447
    22  H    3.290298   2.015991   1.083413   2.135126   3.503835
    23  H    1.095709   1.988117   3.201335   3.793616   3.508957
    24  H    2.174770   3.103557   3.548222   3.280117   2.197085
    25  H    3.400456   3.634256   3.147077   2.112772   1.099468
    26  H    3.188786   4.187273   4.606992   4.557351   4.018015
    27  H    4.536499   4.889663   4.174669   2.950748   2.272896
    28  H    4.449919   5.412556   5.313147   4.514929   3.427984
    29  H    4.727545   5.938860   7.029755   7.357319   6.619943
    30  H    3.791663   4.490572   5.433602   6.045623   5.910577
    31  H    5.306304   6.173585   7.155380   7.674224   7.338749
    32  H    4.580945   5.305710   6.480766   7.211559   6.993517
    33  H    6.787197   5.926168   4.602587   4.028117   5.103654
    34  H    6.888220   5.842849   4.555357   4.388880   5.745351
    35  H    6.749660   6.011101   4.670199   4.034806   5.097567
                    6          7          8          9         10
     6  C    0.000000
     7  C    1.332080   0.000000
     8  C    2.350827   1.497930   0.000000
     9  C    2.419450   2.422896   1.558481   0.000000
    10  C    3.440702   2.592366   1.561139   2.462371   0.000000
    11  O    3.698752   3.333194   2.388253   2.376857   1.423508
    12  C    3.141901   4.364620   4.835077   3.921479   5.446829
    13  O    3.071443   4.396173   5.149624   4.403609   6.000395
    14  O    4.382477   5.525426   5.894812   4.932421   6.252191
    15  C    5.341712   6.563238   7.125964   6.231663   7.557732
    16  O    3.438563   2.440738   1.445151   2.508243   2.410681
    17  C    4.617214   3.541116   2.336528   3.338714   2.427019
    18  C    4.670999   3.662162   2.398568   3.312519   1.508535
    19  C    5.943174   4.957553   3.716086   4.465748   2.582120
    20  C    6.614656   5.756291   4.633049   5.216547   3.196919
    21  O    5.676179   4.590364   3.477911   4.380769   3.605139
    22  H    4.563744   5.315615   5.066480   3.935149   5.034054
    23  H    4.491543   4.302615   3.008663   2.196240   2.785537
    24  H    3.145832   3.129869   2.187106   1.091606   3.218404
    25  H    2.133350   3.061854   3.215170   2.191205   4.430882
    26  H    3.598210   2.681583   2.227086   3.304635   1.094434
    27  H    1.083787   2.157236   3.399178   3.456091   4.410173
    28  H    2.160789   1.085753   2.261995   3.461788   3.068751
    29  H    6.724925   5.681860   4.409875   5.167719   3.513806
    30  H    6.056180   5.331612   4.343618   4.825680   2.810553
    31  H    7.317218   6.366597   5.375650   6.140581   3.925586
    32  H    7.335279   6.569962   5.334961   5.676417   3.982772
    33  H    5.624493   6.915588   7.481461   6.487614   8.090582
    34  H    6.251111   7.415450   7.880897   6.951551   8.153711
    35  H    5.213308   6.411954   7.175528   6.490782   7.618118
                   11         12         13         14         15
    11  O    0.000000
    12  C    4.811321   0.000000
    13  O    5.610738   1.219410   0.000000
    14  O    5.387115   1.356769   2.262309   0.000000
    15  C    6.765145   2.358489   2.643035   1.435257   0.000000
    16  O    3.477218   6.091686   6.287934   7.215912   8.427235
    17  C    3.540307   7.098254   7.440403   8.105519   9.394647
    18  C    2.492465   6.805031   7.340509   7.629437   8.968936
    19  C    3.185419   7.858934   8.497918   8.552585   9.923933
    20  C    3.323841   8.123594   8.901527   8.605671   9.970646
    21  O    4.676385   8.205758   8.500178   9.240402  10.525427
    22  H    3.822465   2.705790   3.918953   2.391341   3.747912
    23  H    2.072204   5.259684   6.071431   5.866837   7.289002
    24  H    3.234433   4.559481   4.942114   5.598597   6.859131
    25  H    4.286868   2.771672   2.792351   4.026910   5.030671
    26  H    2.024149   5.670646   6.169969   6.420238   7.639988
    27  H    4.627135   3.005120   2.586154   4.231652   4.934079
    28  H    4.047879   5.203156   5.111543   6.338030   7.275303
    29  H    4.190774   8.764673   9.359042   9.509593  10.887846
    30  H    2.641331   7.320749   8.146596   7.713924   9.053861
    31  H    4.224810   8.961566   9.700557   9.436662  10.763734
    32  H    3.845625   8.589029   9.446300   8.987425  10.381660
    33  H    7.349629   2.662681   2.647040   2.089494   1.093404
    34  H    7.230538   3.240797   3.704590   2.020919   1.090559
    35  H    6.969314   2.656654   2.626858   2.088426   1.093225
                   16         17         18         19         20
    16  O    0.000000
    17  C    1.373426   0.000000
    18  C    2.328369   1.486892   0.000000
    19  C    3.590032   2.470233   1.339469   0.000000
    20  C    4.855055   3.892015   2.531361   1.495354   0.000000
    21  O    2.257546   1.206016   2.434356   2.960591   4.455707
    22  H    6.341729   6.906090   6.209887   6.900461   6.806209
    23  H    3.579588   3.580012   3.041511   3.609856   4.061290
    24  H    2.522760   3.339759   3.666971   4.770400   5.691659
    25  H    4.014016   5.186879   5.414457   6.629981   7.367392
    26  H    3.095881   3.124492   2.174917   3.016461   3.365201
    27  H    4.415688   5.621945   5.682409   6.942849   7.554867
    28  H    2.824513   3.790607   3.974231   5.207940   6.020992
    29  H    3.941827   2.620855   2.068132   1.090562   2.218535
    30  H    4.887744   4.189452   2.708511   2.162020   1.091903
    31  H    5.521082   4.494213   3.228888   2.140129   1.098607
    32  H    5.515253   4.506641   3.256662   2.139753   1.098024
    33  H    8.688211   9.732318   9.449354  10.462787  10.624778
    34  H    9.220051  10.101155   9.556654  10.415505  10.322713
    35  H    8.487288   9.494097   9.080985  10.074691  10.133974
                   21         22         23         24         25
    21  O    0.000000
    22  H    8.008533   0.000000
    23  H    4.452812   3.998993   0.000000
    24  H    4.166016   4.585232   2.348039   0.000000
    25  H    6.110941   4.058622   4.091748   2.318746   0.000000
    26  H    4.239424   5.421921   3.789311   4.166809   5.012855
    27  H    6.652564   4.961850   5.509433   4.131306   2.628303
    28  H    4.728837   6.263661   5.206030   4.107281   4.047369
    29  H    2.631962   7.835667   4.267761   5.281625   7.302883
    30  H    4.983222   5.957247   3.787678   5.469542   6.882111
    31  H    4.931009   7.728313   5.139367   6.647270   8.263687
    32  H    4.949828   6.990812   4.133958   6.038120   7.836829
    33  H   10.813878   4.298069   7.640785   6.968859   4.986282
    34  H   11.247211   3.922134   7.755269   7.599531   5.935072
    35  H   10.638705   4.413952   7.738928   7.196828   5.284694
                   26         27         28         29         30
    26  H    0.000000
    27  H    4.399364   0.000000
    28  H    2.841607   2.615920   0.000000
    29  H    3.980374   7.740651   5.875168   0.000000
    30  H    2.847421   6.937719   5.653482   3.119177   0.000000
    31  H    3.843992   8.204571   6.465562   2.586878   1.785695
    32  H    4.314188   8.308777   6.940224   2.552228   1.774793
    33  H    8.267231   5.184470   7.661160  11.376585   9.762402
    34  H    8.218152   5.907971   8.135498  11.404351   9.363937
    35  H    7.562287   4.628559   6.986951  11.056279   9.200927
                   31         32         33         34         35
    31  H    0.000000
    32  H    1.756687   0.000000
    33  H   11.464011  11.013565   0.000000
    34  H   11.106843  10.667047   1.794943   0.000000
    35  H   10.851967  10.645058   1.778908   1.794911   0.000000
 Stoichiometry    C15H14O6
 Framework group  C1[X(C15H14O6)]
 Deg. of freedom    99
 Full point group                 C1      NOp   1
 Largest Abelian subgroup         C1      NOp   1
 Largest concise Abelian subgroup C1      NOp   1
                         Standard orientation:                         
 ---------------------------------------------------------------------
 Center     Atomic      Atomic             Coordinates (Angstroms)
 Number     Number       Type             X           Y           Z
 ---------------------------------------------------------------------
      1          6           0       -0.420110    0.999663   -0.897637
      2          8           0        0.697106    1.837553   -1.107506
      3          6           0        1.907518    1.415915   -0.675213
      4          6           0        2.236160    0.150691   -0.361973
      5          6           0        1.254120   -0.992361   -0.510355
      6          6           0        1.021389   -1.807208    0.748621
      7          6           0       -0.264273   -1.879443    1.089639
      8          6           0       -1.136304   -1.062519    0.186317
      9          6           0       -0.176075   -0.524384   -0.916966
     10          6           0       -1.754829    0.224099    0.818136
     11          8           0       -0.938722    1.308851    0.389582
     12          6           0        3.617158   -0.193465    0.021050
     13          8           0        4.006064   -1.335544    0.198159
     14          8           0        4.426756    0.886903    0.155876
     15          6           0        5.787418    0.592707    0.505174
     16          8           0       -2.238753   -1.831579   -0.344356
     17          6           0       -3.411381   -1.116568   -0.343273
     18          6           0       -3.170659    0.203215    0.297878
     19          6           0       -4.119743    1.147172    0.346478
     20          6           0       -3.987278    2.508588    0.950700
     21          8           0       -4.431178   -1.560569   -0.809482
     22          1           0        2.621468    2.230509   -0.652932
     23          1           0       -1.132043    1.302399   -1.673575
     24          1           0       -0.456089   -0.935948   -1.888465
     25          1           0        1.660654   -1.662319   -1.281534
     26          1           0       -1.712823    0.222152    1.911762
     27          1           0        1.848203   -2.279260    1.266443
     28          1           0       -0.677117   -2.423897    1.933434
     29          1           0       -5.079286    0.890844   -0.103965
     30          1           0       -2.979025    2.703384    1.321822
     31          1           0       -4.705213    2.631027    1.773206
     32          1           0       -4.236220    3.279347    0.209340
     33          1           0        6.259230   -0.025265   -0.263615
     34          1           0        6.285006    1.560472    0.576977
     35          1           0        5.834410    0.065027    1.461462
 ---------------------------------------------------------------------
 Rotational constants (GHZ):      0.7647864      0.1847303      0.1619118
 Standard basis: TZVP (5D, 7F)
 There are   504 symmetry adapted cartesian basis functions of A   symmetry.
 There are   483 symmetry adapted basis functions of A   symmetry.
   483 basis functions,   847 primitive gaussians,   504 cartesian basis functions
    76 alpha electrons       76 beta electrons
       nuclear repulsion energy      1734.2164023988 Hartrees.
 NAtoms=   35 NActive=   35 NUniq=   35 SFac= 1.00D+00 NAtFMM=   60 NAOKFM=F Big=F
 Integral buffers will be    131072 words long.
 Regular integral format.
 Two-electron integral symmetry is turned on.
 One-electron integrals computed using PRISM.
 NBasis=   483 RedAO= T EigKep=  1.94D-05  NBF=   483
 NBsUse=   483 1.00D-06 EigRej= -1.00D+00 NBFU=   483
 ExpMin= 9.52D-02 ExpMax= 2.70D+04 ExpMxC= 9.22D+02 IAcc=2 IRadAn=         4 AccDes= 0.00D+00
 Harris functional with IExCor= 1009 and IRadAn=       4 diagonalized for initial guess.
 HarFok:  IExCor= 1009 AccDes= 0.00D+00 IRadAn=         4 IDoV= 1 UseB2=F ITyADJ=14
 ICtDFT=  3500011 ScaDFX=  1.000000  1.000000  1.000000  1.000000
 FoFCou: FMM=F IPFlag=           0 FMFlag=      100000 FMFlg1=           0
         NFxFlg=           0 DoJE=T BraDBF=F KetDBF=T FulRan=T
         wScrn=  0.000000 ICntrl=     500 IOpCl=  0 I1Cent=   200000004 NGrid=           0
         NMat0=    1 NMatS0=      1 NMatT0=    0 NMatD0=    1 NMtDS0=    0 NMtDT0=    0
 Petite list used in FoFCou.
 Requested convergence on RMS density matrix=1.00D-08 within 128 cycles.
 Requested convergence on MAX density matrix=1.00D-06.
 Requested convergence on             energy=1.00D-06.
 No special actions if energy rises.
 Integral accuracy reduced to 1.0D-05 until final iterations.
 Problem detected with inexpensive integrals.
 Switching to full accuracy and repeating last cycle.
 SCF Done:  E(RPBE1PBE) =  -1030.52996718     A.U. after   19 cycles
            NFock= 19  Conv=0.82D-08     -V/T= 2.0047
 DoSCS=F DFT=T ScalE2(SS,OS)=  1.000000  1.000000
 ExpMin= 9.52D-02 ExpMax= 2.70D+04 ExpMxC= 9.22D+02 IAcc=3 IRadAn=         5 AccDes= 0.00D+00
 HarFok:  IExCor=  205 AccDes= 0.00D+00 IRadAn=         5 IDoV=-2 UseB2=F ITyADJ=14
 ICtDFT= 12500011 ScaDFX=  1.000000  1.000000  1.000000  1.000000
 Range of M.O.s used for correlation:    22   483
 NBasis=   483 NAE=    76 NBE=    76 NFC=    21 NFV=     0
 NROrb=    462 NOA=    55 NOB=    55 NVA=   407 NVB=   407

 **** Warning!!: The largest alpha MO coefficient is  0.43349098D+02

 Would need an additional         17874700000 words for in-memory AO integral storage.
 Orbital symmetries:
       Occupied  (A) (A) (A) (A) (A) (A) (A) (A) (A) (A) (A) (A)
                 (A) (A) (A) (A) (A) (A) (A) (A) (A) (A) (A) (A)
                 (A) (A) (A) (A) (A) (A) (A) (A) (A) (A) (A) (A)
                 (A) (A) (A) (A) (A) (A) (A) (A) (A) (A) (A) (A)
                 (A) (A) (A) (A) (A) (A) (A) (A) (A) (A) (A) (A)
                 (A) (A) (A) (A) (A) (A) (A) (A) (A) (A) (A) (A)
                 (A) (A) (A) (A)
       Virtual   (A) (A) (A) (A) (A) (A) (A) (A) (A) (A) (A) (A)
                 (A) (A) (A) (A) (A) (A) (A) (A) (A) (A) (A) (A)
                 (A) (A) (A) (A) (A) (A) (A) (A) (A) (A) (A) (A)
                 (A) (A) (A) (A) (A) (A) (A) (A) (A) (A) (A) (A)
                 (A) (A) (A) (A) (A) (A) (A) (A) (A) (A) (A) (A)
                 (A) (A) (A) (A) (A) (A) (A) (A) (A) (A) (A) (A)
                 (A) (A) (A) (A) (A) (A) (A) (A) (A) (A) (A) (A)
                 (A) (A) (A) (A) (A) (A) (A) (A) (A) (A) (A) (A)
                 (A) (A) (A) (A) (A) (A) (A) (A) (A) (A) (A) (A)
                 (A) (A) (A) (A) (A) (A) (A) (A) (A) (A) (A) (A)
                 (A) (A) (A) (A) (A) (A) (A) (A) (A) (A) (A) (A)
                 (A) (A) (A) (A) (A) (A) (A) (A) (A) (A) (A) (A)
                 (A) (A) (A) (A) (A) (A) (A) (A) (A) (A) (A) (A)
                 (A) (A) (A) (A) (A) (A) (A) (A) (A) (A) (A) (A)
                 (A) (A) (A) (A) (A) (A) (A) (A) (A) (A) (A) (A)
                 (A) (A) (A) (A) (A) (A) (A) (A) (A) (A) (A) (A)
                 (A) (A) (A) (A) (A) (A) (A) (A) (A) (A) (A) (A)
                 (A) (A) (A) (A) (A) (A) (A) (A) (A) (A) (A) (A)
                 (A) (A) (A) (A) (A) (A) (A) (A) (A) (A) (A) (A)
                 (A) (A) (A) (A) (A) (A) (A) (A) (A) (A) (A) (A)
                 (A) (A) (A) (A) (A) (A) (A) (A) (A) (A) (A) (A)
                 (A) (A) (A) (A) (A) (A) (A) (A) (A) (A) (A) (A)
                 (A) (A) (A) (A) (A) (A) (A) (A) (A) (A) (A) (A)
                 (A) (A) (A) (A) (A) (A) (A) (A) (A) (A) (A) (A)
                 (A) (A) (A) (A) (A) (A) (A) (A) (A) (A) (A) (A)
                 (A) (A) (A) (A) (A) (A) (A) (A) (A) (A) (A) (A)
                 (A) (A) (A) (A) (A) (A) (A) (A) (A) (A) (A) (A)
                 (A) (A) (A) (A) (A) (A) (A) (A) (A) (A) (A) (A)
                 (A) (A) (A) (A) (A) (A) (A) (A) (A) (A) (A) (A)
                 (A) (A) (A) (A) (A) (A) (A) (A) (A) (A) (A) (A)
                 (A) (A) (A) (A) (A) (A) (A) (A) (A) (A) (A) (A)
                 (A) (A) (A) (A) (A) (A) (A) (A) (A) (A) (A) (A)
                 (A) (A) (A) (A) (A) (A) (A) (A) (A) (A) (A) (A)
                 (A) (A) (A) (A) (A) (A) (A) (A) (A) (A) (A)
    80 initial guesses have been made.
 Convergence on wavefunction:    0.001000000000000
 Iteration     1 Dimension    80 NMult     0 NNew     80
 CISAX will form    80 AO SS matrices at one time.
 New state      1 was old state      4
 New state      2 was old state      1
 New state      3 was old state      2
 New state      4 was old state     12
 New state      5 was old state      6
 New state      6 was old state     13
 New state      7 was old state      8
 New state      8 was old state     11
 New state      9 was old state      7
 New state     10 was old state      9
 New state     11 was old state      3
 New state     12 was old state     10
 New state     13 was old state     16
 New state     14 was old state     18
 New state     15 was old state     14
 New state     16 was old state      5
 New state     18 was old state     21
 New state     19 was old state     20
 New state     20 was old state     22
 Iteration     2 Dimension   120 NMult    80 NNew     40
 New state      5 was old state     10
 New state      6 was old state      5
 New state      7 was old state      6
 New state      8 was old state     16
 New state      9 was old state      7
 New state     10 was old state      8
 New state     11 was old state      9
 New state     13 was old state     11
 New state     14 was old state     13
 New state     15 was old state     14
 New state     16 was old state     15
 Iteration     3 Dimension   160 NMult   120 NNew     40
 Iteration     4 Dimension   200 NMult   160 NNew     40
 Iteration     5 Dimension   230 NMult   200 NNew     30
 Iteration     6 Dimension   238 NMult   230 NNew      8
 ***********************************************************************
 Excited states from <AA,BB:AA,BB> singles matrix:
 ***********************************************************************
 
 Ground to excited state transition densities written to RWF  633
 Ground to excited state transition electric dipole moments (Au):
       state          X           Y           Z        Dip. S.      Osc.
         1         0.0394     -0.0284     -0.0098      0.0025      0.0003
         2         0.3809     -0.2218      0.0201      0.1947      0.0239
         3        -0.3249      0.1058     -0.0010      0.1167      0.0146
         4        -0.0731      0.0312      0.0075      0.0064      0.0008
         5         1.0014     -0.7557      0.3513      1.6975      0.2300
         6        -0.0106     -0.0946      0.0826      0.0159      0.0022
         7        -0.0999      0.2943      0.1224      0.1115      0.0160
         8        -0.8894      1.2134      0.3646      2.3962      0.3479
         9        -0.0123     -0.0969     -0.0379      0.0110      0.0016
        10        -0.2200     -0.0306     -0.0787      0.0555      0.0081
        11        -0.4663      0.0388     -0.0366      0.2202      0.0328
        12         0.5208     -0.1285      0.0005      0.2877      0.0435
        13         0.1800     -0.2819      0.0123      0.1120      0.0174
        14         0.1480     -0.0356      0.0265      0.0239      0.0039
        15         0.5856     -0.0782     -0.0420      0.3508      0.0573
        16        -0.1852     -0.4247      0.0334      0.2158      0.0356
        17        -0.0198      0.1163     -0.0712      0.0190      0.0032
        18         0.5656      0.2941     -0.0245      0.4070      0.0682
        19        -0.8322      0.2562      0.0248      0.7588      0.1283
        20         0.2956      0.2040     -0.0488      0.1313      0.0225
 Ground to excited state transition velocity dipole moments (Au):
       state          X           Y           Z        Dip. S.      Osc.
         1        -0.0068      0.0054      0.0011      0.0001      0.0003
         2        -0.0678      0.0407     -0.0036      0.0063      0.0227
         3         0.0578     -0.0173     -0.0007      0.0036      0.0130
         4         0.0150     -0.0059     -0.0059      0.0003      0.0010
         5        -0.1948      0.1504     -0.0680      0.0652      0.2138
         6         0.0038      0.0186     -0.0176      0.0007      0.0022
         7         0.0238     -0.0634     -0.0268      0.0053      0.0164
         8         0.1950     -0.2584     -0.0758      0.1105      0.3384
         9         0.0004      0.0201      0.0069      0.0005      0.0014
        10         0.0463      0.0075      0.0164      0.0025      0.0075
        11         0.0979     -0.0043      0.0078      0.0097      0.0288
        12        -0.1128      0.0241     -0.0004      0.0133      0.0391
        13        -0.0417      0.0649     -0.0035      0.0060      0.0171
        14        -0.0338      0.0077     -0.0073      0.0013      0.0034
        15        -0.1386      0.0211      0.0117      0.0198      0.0539
        16         0.0449      0.0959     -0.0080      0.0113      0.0304
        17         0.0064     -0.0274      0.0191      0.0012      0.0031
        18        -0.1370     -0.0668      0.0064      0.0233      0.0618
        19         0.2027     -0.0575     -0.0084      0.0445      0.1168
        20        -0.0765     -0.0521      0.0113      0.0087      0.0225
 Ground to excited state transition magnetic dipole moments (Au):
       state          X           Y           Z
         1        -0.3768     -0.3241     -0.1850
         2         0.0651      0.2032      0.2351
         3        -0.1021      0.1490      0.3807
         4         0.3136     -0.5440      0.1126
         5         0.1769      0.7222      1.7840
         6         0.1560      0.1281      0.3363
         7        -0.1384     -0.0400      0.4102
         8         0.1145     -0.4046      1.9482
         9        -0.0036      0.0836     -0.3221
        10        -0.0166     -0.3171     -0.3522
        11        -0.0010      0.0979      0.4379
        12        -0.0577      0.0427     -0.6413
        13        -0.0448      0.1714     -0.2278
        14        -0.2839     -0.0015     -0.3747
        15        -0.1026     -0.4683     -1.0349
        16         0.0771      0.2805      0.7956
        17         0.0610     -0.3974      0.0356
        18        -0.2305     -0.4546     -0.9775
        19         0.2024      0.5575      0.3184
        20        -0.0088     -0.1729     -0.6785
 Ground to excited state transition velocity quadrupole moments (Au):
       state          XX          YY          ZZ          XY          XZ          YZ
         1         0.0026      0.0163      0.0205     -0.0561      0.0053      0.0048
         2         0.0100      0.0842     -0.0128     -0.1347     -0.0861     -0.0001
         3        -0.3563     -0.0759      0.0121      0.0925      0.0276     -0.0021
         4         0.0689     -0.0067      0.0076     -0.0102     -0.0244      0.0107
         5        -1.9963      0.3575      0.1017      0.3875     -0.2563     -0.2416
         6        -0.1977     -0.0104      0.0232      0.0105      0.0016      0.0359
         7        -0.3060     -0.0899     -0.0358      0.6330      0.1919     -0.0500
         8        -1.4708     -0.5382      0.0517      2.2445      0.7557     -0.1814
         9         0.5215      0.0330     -0.0536     -0.2386     -0.0299      0.0478
        10         0.6027     -0.0231     -0.0519     -0.1468     -0.0505     -0.0404
        11        -0.8778      0.0318     -0.0142     -0.1042     -0.1220     -0.0647
        12         1.0112      0.0101     -0.0037     -0.0856      0.0552      0.0875
        13        -0.1685      0.1661     -0.0120     -0.2866     -0.1788     -0.0260
        14        -0.0955      0.0660      0.0087     -0.1122     -0.1051     -0.0802
        15        -0.4128      0.0899      0.0368     -0.1522     -0.1849     -0.0171
        16         0.4225     -0.0113      0.0027      0.3827      0.0197      0.0144
        17         0.0935     -0.0850      0.0202      0.0301      0.0481      0.0176
        18        -0.5802      0.0179      0.0457     -0.0007     -0.0637     -0.0419
        19         0.1161      0.0891     -0.1741     -1.0483      0.0609      0.0605
        20        -0.0945      0.0910     -0.0449     -0.0308     -0.0274     -0.0125
 <0|del|b> * <b|rxdel|0> + <0|del|b> * <b|delr+rdel|0>
 Rotatory Strengths (R) in cgs (10**-40 erg-esu-cm/Gauss)
       state          XX          YY          ZZ    R(velocity)    E-M Angle
         1        -4.3218      4.9963      1.7974      0.8240       82.72
         2        21.9290    -11.0063      0.6586      3.8604       83.11
         3        -4.6279    -11.7801    -16.6824    -11.0301      110.16
         4         4.5213      7.6337     14.5438      8.8996       48.60
         5        -0.6749   -143.1434    -19.9079    -54.5754       95.47
         6        -6.4348     -8.5872      4.9169     -3.3684      106.87
         7       -21.7517      2.4520    -19.2773    -12.8590      111.77
         8       -29.4241     15.3083    -53.6023    -22.5727       91.80
         9        -2.5952     -0.9054      1.7038     -0.5989       94.53
        10       -16.3653     -9.6646     -2.6387     -9.5562      112.27
        11         2.6385     -3.4586     10.0306      3.0702       86.22
        12        -0.0231     -4.9111     29.2247      8.0968       83.99
        13        37.2988      4.1815      0.4610     13.9804       51.79
        14         6.3304     20.6360      8.7958     11.9207       42.26
        15       -28.6704      9.0300     -2.7469     -7.4624       92.77
        16        22.2705      1.1558     45.1441     22.8568       74.52
        17        18.9741      0.8514     13.8769     11.2341       29.48
        18        27.9727     43.7261     85.1284     52.2757       70.65
        19       -31.2158     58.2101     -9.4535      5.8469       87.46
        20        -0.6220     -7.8257     13.9343      1.8288       88.25
 1/2[<0|r|b>*<b|rxdel|0> + (<0|rxdel|b>*<b|r|0>)*]
 Rotatory Strengths (R) in cgs (10**-40 erg-esu-cm/Gauss)
       state          XX          YY          ZZ     R(length)
         1        10.5114     -6.5021     -1.2810      0.9094
         2       -17.5462     31.8712     -3.3415      3.6612
         3       -23.4545    -11.1481      0.2784    -11.4414
         4        16.2161     11.9889     -0.5991      9.2020
         5      -125.2703    385.9430   -443.2500    -60.8591
         6         1.1719      8.5723    -19.6470     -3.3009
         7        -9.7757      8.3238    -35.4960    -12.3160
         8        72.0062    347.1985   -502.3611    -27.7188
         9        -0.0311      5.7308     -8.6327     -0.9777
        10        -2.5881     -6.8667    -19.6084     -9.6877
        11        -0.3155     -2.6887     11.3202      2.7720
        12        21.2390      3.8762      0.2175      8.4442
        13         5.7068     34.1618      1.9751     13.9479
        14        29.7189     -0.0368      7.0101     12.2307
        15        42.4864    -25.9055    -30.7705     -4.7299
        16        10.1048     84.2383    -18.8127     25.1768
        17         0.8536     32.6888      1.7905     11.7776
        18        92.1990     94.5603    -16.9097     56.6165
        19       119.1210   -100.9979     -5.5830      4.1801
        20         1.8393     24.9366    -23.4070      1.1230
  1/2[<0|del|b>*<b|r|0> + (<0|r|b>*<b|del|0>)*] (Au)
       state          X           Y           Z        Dip. S.   Osc.(frdel)
         1        -0.0003     -0.0002     -0.0000      0.0004      0.0003
         2        -0.0258     -0.0090     -0.0001      0.0349      0.0233
         3        -0.0188     -0.0018      0.0000      0.0206      0.0137
         4        -0.0011     -0.0002     -0.0000      0.0013      0.0009
         5        -0.1951     -0.1137     -0.0239      0.3326      0.2217
         6        -0.0000     -0.0018     -0.0015      0.0032      0.0022
         7        -0.0024     -0.0187     -0.0033      0.0243      0.0162
         8        -0.1734     -0.3135     -0.0276      0.5146      0.3430
         9        -0.0000     -0.0019     -0.0003      0.0022      0.0015
        10        -0.0102     -0.0002     -0.0013      0.0117      0.0078
        11        -0.0457     -0.0002     -0.0003      0.0461      0.0307
        12        -0.0587     -0.0031     -0.0000      0.0618      0.0412
        13        -0.0075     -0.0183     -0.0000      0.0258      0.0172
        14        -0.0050     -0.0003     -0.0002      0.0055      0.0036
        15        -0.0812     -0.0016     -0.0005      0.0833      0.0555
        16        -0.0083     -0.0407     -0.0003      0.0493      0.0329
        17        -0.0001     -0.0032     -0.0014      0.0047      0.0031
        18        -0.0775     -0.0197     -0.0002      0.0973      0.0649
        19        -0.1687     -0.0147     -0.0002      0.1836      0.1224
        20        -0.0226     -0.0106     -0.0006      0.0338      0.0225

 Excitation energies and oscillator strengths:
 
 Excited State   1:      Singlet-A      4.5663 eV  271.52 nm  f=0.0003  <S**2>=0.000
      70 -> 77         0.12311
      73 -> 77         0.10171
      74 -> 77         0.66791
 This state for optimization and/or second-order correction.
 Total Energy, E(TD-HF/TD-KS) =  -1030.36215943    
 Copying the excited state density for this state as the 1-particle RhoCI density.
 
 Excited State   2:      Singlet-A      5.0078 eV  247.58 nm  f=0.0239  <S**2>=0.000
      76 -> 77         0.69669
 
 Excited State   3:      Singlet-A      5.0897 eV  243.60 nm  f=0.0146  <S**2>=0.000
      70 -> 77         0.11555
      75 -> 77         0.68310
 
 Excited State   4:      Singlet-A      5.2197 eV  237.53 nm  f=0.0008  <S**2>=0.000
      72 -> 77         0.11760
      72 -> 78         0.66208
      75 -> 78        -0.10480
 
 Excited State   5:      Singlet-A      5.5312 eV  224.16 nm  f=0.2300  <S**2>=0.000
      76 -> 78         0.68641
 
 Excited State   6:      Singlet-A      5.5966 eV  221.53 nm  f=0.0022  <S**2>=0.000
      75 -> 78         0.68984
 
 Excited State   7:      Singlet-A      5.8575 eV  211.67 nm  f=0.0160  <S**2>=0.000
      70 -> 77         0.54043
      71 -> 77         0.27326
      72 -> 77        -0.10790
      73 -> 77         0.16809
      74 -> 77        -0.19083
      74 -> 78        -0.13733
      75 -> 77        -0.12172
 
 Excited State   8:      Singlet-A      5.9254 eV  209.24 nm  f=0.3479  <S**2>=0.000
      70 -> 77        -0.12463
      71 -> 77        -0.11257
      73 -> 77         0.66091
 
 Excited State   9:      Singlet-A      5.9805 eV  207.32 nm  f=0.0016  <S**2>=0.000
      70 -> 77         0.14274
      70 -> 78        -0.13865
      71 -> 78        -0.11292
      74 -> 78         0.60889
      76 -> 79         0.23296
 
 Excited State  10:      Singlet-A      5.9904 eV  206.97 nm  f=0.0081  <S**2>=0.000
      74 -> 78        -0.23148
      76 -> 79         0.65664
 
 Excited State  11:      Singlet-A      6.0865 eV  203.70 nm  f=0.0328  <S**2>=0.000
      70 -> 77        -0.11892
      71 -> 77         0.44969
      72 -> 77         0.51411
 
 Excited State  12:      Singlet-A      6.1692 eV  200.97 nm  f=0.0435  <S**2>=0.000
      70 -> 77         0.30777
      71 -> 77        -0.43300
      72 -> 77         0.44619
 
 Excited State  13:      Singlet-A      6.3235 eV  196.07 nm  f=0.0174  <S**2>=0.000
      73 -> 78         0.69903
 
 Excited State  14:      Singlet-A      6.6272 eV  187.08 nm  f=0.0039  <S**2>=0.000
      68 -> 78        -0.14364
      71 -> 78         0.62385
      74 -> 78         0.12085
      74 -> 79         0.17877
 
 Excited State  15:      Singlet-A      6.6666 eV  185.98 nm  f=0.0573  <S**2>=0.000
      69 -> 78        -0.10013
      71 -> 78        -0.18051
      74 -> 79         0.50661
      75 -> 79        -0.40352
 
 Excited State  16:      Singlet-A      6.7352 eV  184.09 nm  f=0.0356  <S**2>=0.000
      69 -> 77         0.51087
      69 -> 78         0.39913
      74 -> 79         0.20263
 
 Excited State  17:      Singlet-A      6.8232 eV  181.71 nm  f=0.0032  <S**2>=0.000
      70 -> 78         0.65279
      74 -> 78         0.12617
 
 Excited State  18:      Singlet-A      6.8356 eV  181.38 nm  f=0.0682  <S**2>=0.000
      69 -> 77         0.44973
      69 -> 78        -0.38752
      74 -> 79        -0.20926
      75 -> 79        -0.23426
 
 Excited State  19:      Singlet-A      6.9041 eV  179.58 nm  f=0.1283  <S**2>=0.000
      69 -> 77         0.12037
      69 -> 78        -0.34973
      70 -> 78         0.10360
      71 -> 78        -0.10163
      71 -> 79         0.16929
      73 -> 79         0.19318
      74 -> 79         0.25715
      75 -> 79         0.40018
 
 Excited State  20:      Singlet-A      7.0074 eV  176.93 nm  f=0.0225  <S**2>=0.000
      70 -> 78         0.10499
      72 -> 79         0.55319
      73 -> 79         0.34514
      74 -> 79        -0.14615
 SavETr:  write IOETrn=   770 NScale= 10 NData=  16 NLR=1 NState=   20 LETran=     370.

 **********************************************************************

            Population analysis using the SCF density.

 **********************************************************************

 Orbital symmetries:
       Occupied  (A) (A) (A) (A) (A) (A) (A) (A) (A) (A) (A) (A)
                 (A) (A) (A) (A) (A) (A) (A) (A) (A) (A) (A) (A)
                 (A) (A) (A) (A) (A) (A) (A) (A) (A) (A) (A) (A)
                 (A) (A) (A) (A) (A) (A) (A) (A) (A) (A) (A) (A)
                 (A) (A) (A) (A) (A) (A) (A) (A) (A) (A) (A) (A)
                 (A) (A) (A) (A) (A) (A) (A) (A) (A) (A) (A) (A)
                 (A) (A) (A) (A)
       Virtual   (A) (A) (A) (A) (A) (A) (A) (A) (A) (A) (A) (A)
                 (A) (A) (A) (A) (A) (A) (A) (A) (A) (A) (A) (A)
                 (A) (A) (A) (A) (A) (A) (A) (A) (A) (A) (A) (A)
                 (A) (A) (A) (A) (A) (A) (A) (A) (A) (A) (A) (A)
                 (A) (A) (A) (A) (A) (A) (A) (A) (A) (A) (A) (A)
                 (A) (A) (A) (A) (A) (A) (A) (A) (A) (A) (A) (A)
                 (A) (A) (A) (A) (A) (A) (A) (A) (A) (A) (A) (A)
                 (A) (A) (A) (A) (A) (A) (A) (A) (A) (A) (A) (A)
                 (A) (A) (A) (A) (A) (A) (A) (A) (A) (A) (A) (A)
                 (A) (A) (A) (A) (A) (A) (A) (A) (A) (A) (A) (A)
                 (A) (A) (A) (A) (A) (A) (A) (A) (A) (A) (A) (A)
                 (A) (A) (A) (A) (A) (A) (A) (A) (A) (A) (A) (A)
                 (A) (A) (A) (A) (A) (A) (A) (A) (A) (A) (A) (A)
                 (A) (A) (A) (A) (A) (A) (A) (A) (A) (A) (A) (A)
                 (A) (A) (A) (A) (A) (A) (A) (A) (A) (A) (A) (A)
                 (A) (A) (A) (A) (A) (A) (A) (A) (A) (A) (A) (A)
                 (A) (A) (A) (A) (A) (A) (A) (A) (A) (A) (A) (A)
                 (A) (A) (A) (A) (A) (A) (A) (A) (A) (A) (A) (A)
                 (A) (A) (A) (A) (A) (A) (A) (A) (A) (A) (A) (A)
                 (A) (A) (A) (A) (A) (A) (A) (A) (A) (A) (A) (A)
                 (A) (A) (A) (A) (A) (A) (A) (A) (A) (A) (A) (A)
                 (A) (A) (A) (A) (A) (A) (A) (A) (A) (A) (A) (A)
                 (A) (A) (A) (A) (A) (A) (A) (A) (A) (A) (A) (A)
                 (A) (A) (A) (A) (A) (A) (A) (A) (A) (A) (A) (A)
                 (A) (A) (A) (A) (A) (A) (A) (A) (A) (A) (A) (A)
                 (A) (A) (A) (A) (A) (A) (A) (A) (A) (A) (A) (A)
                 (A) (A) (A) (A) (A) (A) (A) (A) (A) (A) (A) (A)
                 (A) (A) (A) (A) (A) (A) (A) (A) (A) (A) (A) (A)
                 (A) (A) (A) (A) (A) (A) (A) (A) (A) (A) (A) (A)
                 (A) (A) (A) (A) (A) (A) (A) (A) (A) (A) (A) (A)
                 (A) (A) (A) (A) (A) (A) (A) (A) (A) (A) (A) (A)
                 (A) (A) (A) (A) (A) (A) (A) (A) (A) (A) (A) (A)
                 (A) (A) (A) (A) (A) (A) (A) (A) (A) (A) (A) (A)
                 (A) (A) (A) (A) (A) (A) (A) (A) (A) (A) (A)
 The electronic state is 1-A.
 Alpha  occ. eigenvalues --  -19.27430 -19.26024 -19.25993 -19.24319 -19.19821
 Alpha  occ. eigenvalues --  -19.19587 -10.36060 -10.35704 -10.35580 -10.31985
 Alpha  occ. eigenvalues --  -10.31110 -10.30947 -10.28105 -10.26776 -10.26609
 Alpha  occ. eigenvalues --  -10.26376 -10.25538 -10.25316 -10.24498 -10.24070
 Alpha  occ. eigenvalues --  -10.23943  -1.15393  -1.14217  -1.14029  -1.09062
 Alpha  occ. eigenvalues --   -1.05949  -1.05174  -0.90604  -0.86466  -0.84485
 Alpha  occ. eigenvalues --   -0.80740  -0.78683  -0.76392  -0.75709  -0.70868
 Alpha  occ. eigenvalues --   -0.69622  -0.67028  -0.62523  -0.61411  -0.60796
 Alpha  occ. eigenvalues --   -0.58392  -0.56845  -0.56004  -0.55886  -0.54302
 Alpha  occ. eigenvalues --   -0.52674  -0.51022  -0.50519  -0.49675  -0.48680
 Alpha  occ. eigenvalues --   -0.47526  -0.46789  -0.46370  -0.45640  -0.45229
 Alpha  occ. eigenvalues --   -0.44634  -0.44074  -0.43717  -0.42464  -0.41206
 Alpha  occ. eigenvalues --   -0.40664  -0.40182  -0.39670  -0.39376  -0.38371
 Alpha  occ. eigenvalues --   -0.38067  -0.36605  -0.36007  -0.32639  -0.32218
 Alpha  occ. eigenvalues --   -0.31842  -0.30289  -0.29594  -0.28840  -0.28266
 Alpha  occ. eigenvalues --   -0.26805
 Alpha virt. eigenvalues --   -0.06055  -0.04203  -0.00750   0.03092   0.04450
 Alpha virt. eigenvalues --    0.05213   0.05843   0.06329   0.06554   0.07575
 Alpha virt. eigenvalues --    0.08012   0.09212   0.09389   0.09758   0.10336
 Alpha virt. eigenvalues --    0.10558   0.11058   0.11150   0.12224   0.12353
 Alpha virt. eigenvalues --    0.12671   0.13536   0.13736   0.14288   0.14434
 Alpha virt. eigenvalues --    0.15795   0.16637   0.17046   0.18306   0.18984
 Alpha virt. eigenvalues --    0.19268   0.19729   0.20217   0.20404   0.21477
 Alpha virt. eigenvalues --    0.22167   0.22856   0.23405   0.23576   0.23628
 Alpha virt. eigenvalues --    0.24671   0.24953   0.26057   0.26559   0.26869
 Alpha virt. eigenvalues --    0.27036   0.27761   0.28524   0.28866   0.29815
 Alpha virt. eigenvalues --    0.30651   0.31136   0.31764   0.32302   0.32524
 Alpha virt. eigenvalues --    0.33554   0.34018   0.34390   0.34718   0.35473
 Alpha virt. eigenvalues --    0.35902   0.36413   0.37280   0.37732   0.38247
 Alpha virt. eigenvalues --    0.38717   0.38785   0.39238   0.40062   0.40320
 Alpha virt. eigenvalues --    0.40591   0.41466   0.41613   0.42430   0.43106
 Alpha virt. eigenvalues --    0.43420   0.43757   0.44147   0.44568   0.44765
 Alpha virt. eigenvalues --    0.45286   0.45667   0.46435   0.46537   0.46751
 Alpha virt. eigenvalues --    0.47090   0.47546   0.48214   0.48305   0.48992
 Alpha virt. eigenvalues --    0.49610   0.50516   0.51060   0.51456   0.52100
 Alpha virt. eigenvalues --    0.52725   0.53220   0.53445   0.54289   0.55026
 Alpha virt. eigenvalues --    0.56637   0.57426   0.57982   0.58667   0.59998
 Alpha virt. eigenvalues --    0.61187   0.61407   0.62063   0.63548   0.64469
 Alpha virt. eigenvalues --    0.64620   0.65467   0.66194   0.67220   0.67707
 Alpha virt. eigenvalues --    0.68370   0.68691   0.70665   0.71575   0.71974
 Alpha virt. eigenvalues --    0.72854   0.73353   0.74404   0.75475   0.76302
 Alpha virt. eigenvalues --    0.78799   0.79499   0.80352   0.82337   0.83795
 Alpha virt. eigenvalues --    0.83983   0.84745   0.86314   0.86796   0.89331
 Alpha virt. eigenvalues --    0.92544   0.95836   0.97059   0.98327   0.98989
 Alpha virt. eigenvalues --    1.05733   1.13402   1.16511   1.21143   1.22956
 Alpha virt. eigenvalues --    1.25251   1.26360   1.27053   1.27638   1.28504
 Alpha virt. eigenvalues --    1.29036   1.29678   1.30155   1.30451   1.31702
 Alpha virt. eigenvalues --    1.32693   1.33218   1.33757   1.33997   1.35272
 Alpha virt. eigenvalues --    1.35482   1.36549   1.36614   1.37892   1.38653
 Alpha virt. eigenvalues --    1.39432   1.40440   1.40818   1.40990   1.41588
 Alpha virt. eigenvalues --    1.41923   1.42741   1.43019   1.43572   1.44703
 Alpha virt. eigenvalues --    1.44987   1.45306   1.46377   1.47394   1.47703
 Alpha virt. eigenvalues --    1.48758   1.49723   1.50279   1.50827   1.51132
 Alpha virt. eigenvalues --    1.51722   1.51867   1.52166   1.53787   1.53873
 Alpha virt. eigenvalues --    1.55285   1.55504   1.56185   1.56351   1.56955
 Alpha virt. eigenvalues --    1.57382   1.57606   1.58499   1.58757   1.59478
 Alpha virt. eigenvalues --    1.60617   1.61106   1.61508   1.63330   1.63669
 Alpha virt. eigenvalues --    1.65154   1.66151   1.67863   1.68325   1.69005
 Alpha virt. eigenvalues --    1.70290   1.74953   1.75540   1.75773   1.76090
 Alpha virt. eigenvalues --    1.77141   1.77804   1.78656   1.78740   1.79275
 Alpha virt. eigenvalues --    1.79622   1.79823   1.80983   1.82230   1.82627
 Alpha virt. eigenvalues --    1.82957   1.85366   1.86823   1.87890   1.89503
 Alpha virt. eigenvalues --    1.90305   1.91957   1.93074   1.94082   1.95036
 Alpha virt. eigenvalues --    1.95940   1.98627   1.99019   2.00762   2.01450
 Alpha virt. eigenvalues --    2.01799   2.03194   2.04979   2.05622   2.06519
 Alpha virt. eigenvalues --    2.07380   2.08874   2.10396   2.11593   2.12582
 Alpha virt. eigenvalues --    2.13377   2.14283   2.15726   2.16303   2.17702
 Alpha virt. eigenvalues --    2.18303   2.19538   2.21396   2.23540   2.24143
 Alpha virt. eigenvalues --    2.25449   2.27127   2.28201   2.29197   2.30281
 Alpha virt. eigenvalues --    2.32759   2.33814   2.34468   2.34944   2.35995
 Alpha virt. eigenvalues --    2.37258   2.38997   2.39412   2.40493   2.41585
 Alpha virt. eigenvalues --    2.42242   2.43146   2.44335   2.45056   2.46848
 Alpha virt. eigenvalues --    2.47523   2.48702   2.50610   2.51787   2.54060
 Alpha virt. eigenvalues --    2.54714   2.55265   2.55627   2.58019   2.58708
 Alpha virt. eigenvalues --    2.60393   2.61902   2.62671   2.63021   2.63646
 Alpha virt. eigenvalues --    2.65388   2.66025   2.66690   2.68655   2.68862
 Alpha virt. eigenvalues --    2.69656   2.70007   2.71387   2.72401   2.72863
 Alpha virt. eigenvalues --    2.73349   2.73764   2.74754   2.75153   2.75500
 Alpha virt. eigenvalues --    2.76749   2.76901   2.77912   2.79298   2.80448
 Alpha virt. eigenvalues --    2.81122   2.82740   2.83318   2.84196   2.86740
 Alpha virt. eigenvalues --    2.88921   2.89229   2.90560   2.94270   2.95390
 Alpha virt. eigenvalues --    2.96786   2.97035   2.98094   2.98320   2.99270
 Alpha virt. eigenvalues --    2.99848   3.00655   3.00772   3.03045   3.03526
 Alpha virt. eigenvalues --    3.03846   3.06311   3.08343   3.09202   3.10130
 Alpha virt. eigenvalues --    3.10553   3.12459   3.14062   3.14854   3.17476
 Alpha virt. eigenvalues --    3.18799   3.20853   3.22146   3.22610   3.23779
 Alpha virt. eigenvalues --    3.24274   3.25393   3.25900   3.26837   3.28663
 Alpha virt. eigenvalues --    3.30592   3.30877   3.31662   3.32101   3.32690
 Alpha virt. eigenvalues --    3.33078   3.34216   3.36302   3.38023   3.39189
 Alpha virt. eigenvalues --    3.40592   3.41214   3.42619   3.46209   3.47588
 Alpha virt. eigenvalues --    3.51167   3.53124   3.58958   3.59653   3.60797
 Alpha virt. eigenvalues --    3.62454   3.90964   3.95902   4.01895   4.06664
 Alpha virt. eigenvalues --    4.13155   4.14503   4.17766   4.22412   4.30674
 Alpha virt. eigenvalues --    4.32317  21.73476  21.77510  21.84064  22.04336
 Alpha virt. eigenvalues --   22.05629  22.08980  22.16016  22.16728  22.23000
 Alpha virt. eigenvalues --   22.25299  22.27654  22.29620  22.35023  22.41618
 Alpha virt. eigenvalues --   22.45997  43.64731  43.70204  43.74678  43.75530
 Alpha virt. eigenvalues --   43.88726  43.97255
          Condensed to atoms (all electrons):
               1          2          3          4          5          6
     1  C    5.500139   0.275988  -0.146910  -0.030161   0.281476  -0.047359
     2  O    0.275988   7.765667   0.297735  -0.090156   0.008204  -0.002647
     3  C   -0.146910   0.297735   5.168056   0.330419  -0.258939   0.029309
     4  C   -0.030161  -0.090156   0.330419   7.288049  -0.524415   0.119533
     5  C    0.281476   0.008204  -0.258939  -0.524415   6.878592  -0.244042
     6  C   -0.047359  -0.002647   0.029309   0.119533  -0.244042   5.638719
     7  C    0.001151   0.001735   0.001525   0.003805   0.177931   0.097933
     8  C    0.315712  -0.006035  -0.035986  -0.032337   0.358198   0.002628
     9  C   -0.439438  -0.020708   0.114697   0.292189  -1.291110   0.350915
    10  C   -0.250494   0.022065  -0.001430   0.008259  -0.039884  -0.006925
    11  O    0.186337  -0.084280   0.038586  -0.009450  -0.090971   0.031517
    12  C    0.004954   0.020029  -0.068314  -0.562815   0.218069  -0.120271
    13  O   -0.000410  -0.000134   0.008705  -0.169096   0.034427  -0.016051
    14  O   -0.000107   0.000046   0.015841  -0.246219   0.006440  -0.001412
    15  C    0.000033   0.000081  -0.001965  -0.011838   0.001230  -0.000393
    16  O   -0.005838  -0.000093  -0.000034  -0.001126   0.004544   0.015309
    17  C   -0.001759   0.000172   0.000010   0.000333  -0.009731   0.003393
    18  C    0.051258  -0.004236   0.002807  -0.003703  -0.002050   0.012249
    19  C   -0.001493  -0.000066   0.000270  -0.000438  -0.000612   0.001695
    20  C   -0.000762   0.000010   0.000005   0.000008  -0.000106  -0.000009
    21  O   -0.000077   0.000000   0.000002  -0.000001  -0.000146   0.000047
    22  H    0.004503  -0.029403   0.435156  -0.083750   0.006645   0.000146
    23  H    0.422953  -0.052946   0.016054  -0.008645   0.014182   0.000543
    24  H   -0.033291   0.005265   0.012798  -0.001533  -0.050399   0.009410
    25  H    0.001656   0.000429  -0.001983  -0.043626   0.424867  -0.015879
    26  H    0.016252   0.000051  -0.001323   0.000549   0.005611  -0.004147
    27  H   -0.000559  -0.000049   0.000401   0.007835  -0.048387   0.394969
    28  H    0.001626   0.000035  -0.000086  -0.000634   0.019577  -0.054658
    29  H   -0.000331   0.000000   0.000005  -0.000004   0.000000   0.000008
    30  H   -0.002287   0.000003   0.000015  -0.000019   0.000043  -0.000004
    31  H    0.000118  -0.000001  -0.000001   0.000000   0.000005  -0.000001
    32  H    0.000308   0.000005   0.000000   0.000001  -0.000002   0.000000
    33  H   -0.000012   0.000000   0.000096  -0.003151   0.000043   0.000039
    34  H    0.000004   0.000003  -0.001067   0.003066   0.000108  -0.000004
    35  H    0.000019   0.000000   0.000388  -0.002286   0.000123   0.000040
               7          8          9         10         11         12
     1  C    0.001151   0.315712  -0.439438  -0.250494   0.186337   0.004954
     2  O    0.001735  -0.006035  -0.020708   0.022065  -0.084280   0.020029
     3  C    0.001525  -0.035986   0.114697  -0.001430   0.038586  -0.068314
     4  C    0.003805  -0.032337   0.292189   0.008259  -0.009450  -0.562815
     5  C    0.177931   0.358198  -1.291110  -0.039884  -0.090971   0.218069
     6  C    0.097933   0.002628   0.350915  -0.006925   0.031517  -0.120271
     7  C    5.723827   0.142169  -0.251163   0.000856  -0.026324   0.022904
     8  C    0.142169   6.439322  -0.961994  -0.365099  -0.060612   0.002320
     9  C   -0.251163  -0.961994   7.781765   0.185885   0.102934  -0.066717
    10  C    0.000856  -0.365099   0.185885   6.611286   0.253302   0.002403
    11  O   -0.026324  -0.060612   0.102934   0.253302   7.942675  -0.008509
    12  C    0.022904   0.002320  -0.066717   0.002403  -0.008509   5.459149
    13  O    0.005645  -0.000781   0.005086  -0.000048   0.000007   0.623684
    14  O    0.000112  -0.000089   0.000421   0.000010   0.000006   0.388044
    15  C   -0.000056   0.000029  -0.000381   0.000001  -0.000007  -0.048550
    16  O   -0.124032   0.235773  -0.066293   0.002899   0.002339  -0.000025
    17  C    0.002888  -0.098817   0.032088   0.127431   0.000869  -0.000018
    18  C   -0.040450   0.289965  -0.018262  -0.809734  -0.042296  -0.000444
    19  C   -0.011984  -0.011765   0.020287  -0.221842  -0.003290  -0.000013
    20  C    0.000115  -0.002243   0.000939   0.003714  -0.006225  -0.000001
    21  O   -0.000269  -0.004993   0.003010   0.009409  -0.000179  -0.000000
    22  H   -0.000166   0.000129  -0.001371   0.000104   0.000167  -0.006133
    23  H   -0.001943   0.005613  -0.082240  -0.027477  -0.060488  -0.001400
    24  H    0.005283  -0.043240   0.395346  -0.001329   0.009348  -0.004458
    25  H   -0.004188  -0.004713  -0.011626   0.000030  -0.000297  -0.020797
    26  H    0.012896   0.009406  -0.018809   0.338712  -0.036076   0.000336
    27  H   -0.032041   0.006721   0.016197  -0.000443   0.000399  -0.007092
    28  H    0.420715  -0.033483  -0.005101  -0.003621  -0.000631   0.000476
    29  H   -0.000021  -0.001344   0.000303   0.014940  -0.000685  -0.000000
    30  H   -0.000105  -0.000677   0.000838   0.008654   0.006225  -0.000001
    31  H    0.000023   0.000238  -0.000092  -0.002017   0.000280   0.000000
    32  H   -0.000006  -0.000213   0.000002   0.002155   0.000288   0.000000
    33  H   -0.000008  -0.000000   0.000026   0.000000   0.000000  -0.010570
    34  H   -0.000001   0.000000  -0.000010   0.000000  -0.000000   0.008577
    35  H   -0.000001   0.000004  -0.000046  -0.000000   0.000000  -0.012850
              13         14         15         16         17         18
     1  C   -0.000410  -0.000107   0.000033  -0.005838  -0.001759   0.051258
     2  O   -0.000134   0.000046   0.000081  -0.000093   0.000172  -0.004236
     3  C    0.008705   0.015841  -0.001965  -0.000034   0.000010   0.002807
     4  C   -0.169096  -0.246219  -0.011838  -0.001126   0.000333  -0.003703
     5  C    0.034427   0.006440   0.001230   0.004544  -0.009731  -0.002050
     6  C   -0.016051  -0.001412  -0.000393   0.015309   0.003393   0.012249
     7  C    0.005645   0.000112  -0.000056  -0.124032   0.002888  -0.040450
     8  C   -0.000781  -0.000089   0.000029   0.235773  -0.098817   0.289965
     9  C    0.005086   0.000421  -0.000381  -0.066293   0.032088  -0.018262
    10  C   -0.000048   0.000010   0.000001   0.002899   0.127431  -0.809734
    11  O    0.000007   0.000006  -0.000007   0.002339   0.000869  -0.042296
    12  C    0.623684   0.388044  -0.048550  -0.000025  -0.000018  -0.000444
    13  O    7.903989  -0.105373   0.016864   0.000000   0.000000   0.000000
    14  O   -0.105373   8.026507   0.194795  -0.000000   0.000000  -0.000000
    15  C    0.016864   0.194795   4.822440  -0.000000  -0.000000  -0.000000
    16  O    0.000000  -0.000000  -0.000000   7.957520   0.313789  -0.195749
    17  C    0.000000   0.000000  -0.000000   0.313789   4.948519  -0.016235
    18  C    0.000000  -0.000000  -0.000000  -0.195749  -0.016235   6.790298
    19  C    0.000000   0.000000  -0.000000   0.015620  -0.127256   0.388202
    20  C   -0.000000  -0.000000  -0.000000  -0.000413   0.013477  -0.016750
    21  O    0.000000  -0.000000  -0.000000  -0.082613   0.673345  -0.136633
    22  H    0.000415   0.012032   0.000069  -0.000000   0.000001  -0.000003
    23  H   -0.000001  -0.000004  -0.000002   0.000617  -0.004396   0.021329
    24  H    0.000054   0.000004  -0.000006   0.008622   0.000509   0.001449
    25  H    0.000302   0.000152  -0.000074   0.000207   0.000108  -0.000071
    26  H   -0.000000   0.000000   0.000000   0.003017   0.007276  -0.038307
    27  H    0.004650   0.000242   0.000002  -0.000076   0.000042   0.000135
    28  H    0.000037   0.000001  -0.000000  -0.001331  -0.000905  -0.001606
    29  H    0.000000   0.000000  -0.000000   0.001849  -0.014841   0.000867
    30  H    0.000000  -0.000000  -0.000000  -0.000014   0.000109   0.015789
    31  H   -0.000000  -0.000000   0.000000   0.000003  -0.000570  -0.008343
    32  H   -0.000000   0.000000   0.000000   0.000017   0.000048  -0.006838
    33  H    0.003777  -0.034537   0.418614   0.000000   0.000000   0.000000
    34  H    0.002296  -0.033947   0.387954  -0.000000  -0.000000  -0.000000
    35  H    0.004237  -0.032988   0.417778   0.000000   0.000000   0.000000
              19         20         21         22         23         24
     1  C   -0.001493  -0.000762  -0.000077   0.004503   0.422953  -0.033291
     2  O   -0.000066   0.000010   0.000000  -0.029403  -0.052946   0.005265
     3  C    0.000270   0.000005   0.000002   0.435156   0.016054   0.012798
     4  C   -0.000438   0.000008  -0.000001  -0.083750  -0.008645  -0.001533
     5  C   -0.000612  -0.000106  -0.000146   0.006645   0.014182  -0.050399
     6  C    0.001695  -0.000009   0.000047   0.000146   0.000543   0.009410
     7  C   -0.011984   0.000115  -0.000269  -0.000166  -0.001943   0.005283
     8  C   -0.011765  -0.002243  -0.004993   0.000129   0.005613  -0.043240
     9  C    0.020287   0.000939   0.003010  -0.001371  -0.082240   0.395346
    10  C   -0.221842   0.003714   0.009409   0.000104  -0.027477  -0.001329
    11  O   -0.003290  -0.006225  -0.000179   0.000167  -0.060488   0.009348
    12  C   -0.000013  -0.000001  -0.000000  -0.006133  -0.001400  -0.004458
    13  O    0.000000  -0.000000   0.000000   0.000415  -0.000001   0.000054
    14  O    0.000000  -0.000000  -0.000000   0.012032  -0.000004   0.000004
    15  C   -0.000000  -0.000000  -0.000000   0.000069  -0.000002  -0.000006
    16  O    0.015620  -0.000413  -0.082613  -0.000000   0.000617   0.008622
    17  C   -0.127256   0.013477   0.673345   0.000001  -0.004396   0.000509
    18  C    0.388202  -0.016750  -0.136633  -0.000003   0.021329   0.001449
    19  C    5.484046   0.218388   0.006883   0.000001   0.008459  -0.000968
    20  C    0.218388   5.012339   0.000736   0.000000  -0.000134   0.000037
    21  O    0.006883   0.000736   7.794449   0.000000  -0.000005  -0.000252
    22  H    0.000001   0.000000   0.000000   0.508030  -0.000459   0.000099
    23  H    0.008459  -0.000134  -0.000005  -0.000459   0.625923  -0.002712
    24  H   -0.000968   0.000037  -0.000252   0.000099  -0.002712   0.498655
    25  H    0.000001   0.000000   0.000001  -0.000126  -0.000085  -0.001770
    26  H   -0.011635   0.001726  -0.000130  -0.000003  -0.001312  -0.000818
    27  H    0.000003  -0.000000  -0.000000   0.000001   0.000024  -0.000105
    28  H   -0.000052  -0.000003  -0.000032  -0.000003   0.000012  -0.000630
    29  H    0.353428  -0.040236   0.017942   0.000000   0.000165   0.000021
    30  H   -0.075747   0.427549  -0.000003  -0.000000   0.000310  -0.000029
    31  H   -0.024615   0.396625   0.000043   0.000000  -0.000016  -0.000001
    32  H   -0.021690   0.391382   0.000043  -0.000000  -0.000198  -0.000001
    33  H    0.000000  -0.000000   0.000000   0.000096  -0.000000   0.000000
    34  H   -0.000000  -0.000000  -0.000000  -0.000124  -0.000000  -0.000000
    35  H    0.000000   0.000000   0.000000   0.000081   0.000000  -0.000000
              25         26         27         28         29         30
     1  C    0.001656   0.016252  -0.000559   0.001626  -0.000331  -0.002287
     2  O    0.000429   0.000051  -0.000049   0.000035   0.000000   0.000003
     3  C   -0.001983  -0.001323   0.000401  -0.000086   0.000005   0.000015
     4  C   -0.043626   0.000549   0.007835  -0.000634  -0.000004  -0.000019
     5  C    0.424867   0.005611  -0.048387   0.019577   0.000000   0.000043
     6  C   -0.015879  -0.004147   0.394969  -0.054658   0.000008  -0.000004
     7  C   -0.004188   0.012896  -0.032041   0.420715  -0.000021  -0.000105
     8  C   -0.004713   0.009406   0.006721  -0.033483  -0.001344  -0.000677
     9  C   -0.011626  -0.018809   0.016197  -0.005101   0.000303   0.000838
    10  C    0.000030   0.338712  -0.000443  -0.003621   0.014940   0.008654
    11  O   -0.000297  -0.036076   0.000399  -0.000631  -0.000685   0.006225
    12  C   -0.020797   0.000336  -0.007092   0.000476  -0.000000  -0.000001
    13  O    0.000302  -0.000000   0.004650   0.000037   0.000000   0.000000
    14  O    0.000152   0.000000   0.000242   0.000001   0.000000  -0.000000
    15  C   -0.000074   0.000000   0.000002  -0.000000  -0.000000  -0.000000
    16  O    0.000207   0.003017  -0.000076  -0.001331   0.001849  -0.000014
    17  C    0.000108   0.007276   0.000042  -0.000905  -0.014841   0.000109
    18  C   -0.000071  -0.038307   0.000135  -0.001606   0.000867   0.015789
    19  C    0.000001  -0.011635   0.000003  -0.000052   0.353428  -0.075747
    20  C    0.000000   0.001726  -0.000000  -0.000003  -0.040236   0.427549
    21  O    0.000001  -0.000130  -0.000000  -0.000032   0.017942  -0.000003
    22  H   -0.000126  -0.000003   0.000001  -0.000003   0.000000  -0.000000
    23  H   -0.000085  -0.001312   0.000024   0.000012   0.000165   0.000310
    24  H   -0.001770  -0.000818  -0.000105  -0.000630   0.000021  -0.000029
    25  H    0.492810   0.000060   0.001122  -0.000270   0.000000   0.000000
    26  H    0.000060   0.542474  -0.000217   0.001666  -0.000618  -0.001056
    27  H    0.001122  -0.000217   0.480290  -0.003826   0.000000   0.000000
    28  H   -0.000270   0.001666  -0.003826   0.535941   0.000001   0.000007
    29  H    0.000000  -0.000618   0.000000   0.000001   0.503973   0.002397
    30  H    0.000000  -0.001056   0.000000   0.000007   0.002397   0.483713
    31  H   -0.000000   0.000307  -0.000000  -0.000000  -0.000347  -0.018950
    32  H    0.000000  -0.000061   0.000000   0.000000   0.000486  -0.017898
    33  H   -0.000035  -0.000000   0.000023  -0.000000   0.000000  -0.000000
    34  H   -0.000002   0.000000  -0.000001  -0.000000  -0.000000  -0.000000
    35  H    0.000020  -0.000000   0.000002  -0.000000   0.000000   0.000000
              31         32         33         34         35
     1  C    0.000118   0.000308  -0.000012   0.000004   0.000019
     2  O   -0.000001   0.000005   0.000000   0.000003   0.000000
     3  C   -0.000001   0.000000   0.000096  -0.001067   0.000388
     4  C    0.000000   0.000001  -0.003151   0.003066  -0.002286
     5  C    0.000005  -0.000002   0.000043   0.000108   0.000123
     6  C   -0.000001   0.000000   0.000039  -0.000004   0.000040
     7  C    0.000023  -0.000006  -0.000008  -0.000001  -0.000001
     8  C    0.000238  -0.000213  -0.000000   0.000000   0.000004
     9  C   -0.000092   0.000002   0.000026  -0.000010  -0.000046
    10  C   -0.002017   0.002155   0.000000   0.000000  -0.000000
    11  O    0.000280   0.000288   0.000000  -0.000000   0.000000
    12  C    0.000000   0.000000  -0.010570   0.008577  -0.012850
    13  O   -0.000000  -0.000000   0.003777   0.002296   0.004237
    14  O   -0.000000   0.000000  -0.034537  -0.033947  -0.032988
    15  C    0.000000   0.000000   0.418614   0.387954   0.417778
    16  O    0.000003   0.000017   0.000000  -0.000000   0.000000
    17  C   -0.000570   0.000048   0.000000  -0.000000   0.000000
    18  C   -0.008343  -0.006838   0.000000  -0.000000   0.000000
    19  C   -0.024615  -0.021690   0.000000  -0.000000   0.000000
    20  C    0.396625   0.391382  -0.000000  -0.000000   0.000000
    21  O    0.000043   0.000043   0.000000  -0.000000   0.000000
    22  H    0.000000  -0.000000   0.000096  -0.000124   0.000081
    23  H   -0.000016  -0.000198  -0.000000  -0.000000   0.000000
    24  H   -0.000001  -0.000001   0.000000  -0.000000  -0.000000
    25  H   -0.000000   0.000000  -0.000035  -0.000002   0.000020
    26  H    0.000307  -0.000061  -0.000000   0.000000  -0.000000
    27  H   -0.000000   0.000000   0.000023  -0.000001   0.000002
    28  H   -0.000000   0.000000  -0.000000  -0.000000  -0.000000
    29  H   -0.000347   0.000486   0.000000  -0.000000   0.000000
    30  H   -0.018950  -0.017898  -0.000000  -0.000000   0.000000
    31  H    0.544992  -0.030174  -0.000000   0.000000  -0.000000
    32  H   -0.030174   0.541221   0.000000   0.000000  -0.000000
    33  H   -0.000000   0.000000   0.553329  -0.026640  -0.037429
    34  H    0.000000   0.000000  -0.026640   0.550078  -0.026458
    35  H   -0.000000  -0.000000  -0.037429  -0.026458   0.553073
 Mulliken charges:
               1
     1  C   -0.103196
     2  O   -0.106770
     3  C    0.045157
     4  C   -0.228645
     5  C    0.120480
     6  C   -0.194599
     7  C   -0.128755
     8  C   -0.143806
     9  C   -0.067567
    10  C    0.138225
    11  O   -0.144960
    12  C    0.188032
    13  O   -0.322282
    14  O   -0.189976
    15  C   -0.196619
    16  O   -0.084489
    17  C    0.150119
    18  C   -0.232638
    19  C    0.016184
    20  C   -0.400168
    21  O   -0.280576
    22  H    0.153866
    23  H    0.128278
    24  H    0.194639
    25  H    0.183775
    26  H    0.174174
    27  H    0.179738
    28  H    0.126778
    29  H    0.162041
    30  H    0.171139
    31  H    0.142493
    32  H    0.141124
    33  H    0.136340
    34  H    0.136170
    35  H    0.136295
 Sum of Mulliken charges =  -0.00000
 Mulliken charges with hydrogens summed into heavy atoms:
               1
     1  C    0.025082
     2  O   -0.106770
     3  C    0.199023
     4  C   -0.228645
     5  C    0.304255
     6  C   -0.014861
     7  C   -0.001977
     8  C   -0.143806
     9  C    0.127071
    10  C    0.312399
    11  O   -0.144960
    12  C    0.188032
    13  O   -0.322282
    14  O   -0.189976
    15  C    0.212187
    16  O   -0.084489
    17  C    0.150119
    18  C   -0.232638
    19  C    0.178225
    20  C    0.054588
    21  O   -0.280576
 Electronic spatial extent (au):  <R**2>=           6585.6277
 Charge=             -0.0000 electrons
 Dipole moment (field-independent basis, Debye):
    X=              1.9303    Y=              3.7773    Z=              1.4330  Tot=              4.4775
 Quadrupole moment (field-independent basis, Debye-Ang):
   XX=           -119.2212   YY=           -127.3862   ZZ=           -115.7850
   XY=             -9.0196   XZ=             -6.9172   YZ=             -3.0208
 Traceless Quadrupole moment (field-independent basis, Debye-Ang):
   XX=              1.5762   YY=             -6.5887   ZZ=              5.0125
   XY=             -9.0196   XZ=             -6.9172   YZ=             -3.0208
 Octapole moment (field-independent basis, Debye-Ang**2):
  XXX=            146.7008  YYY=             26.1026  ZZZ=             -0.3321  XYY=              5.6712
  XXY=            123.7818  XXZ=             43.3382  XZZ=              4.9749  YZZ=             -3.9083
  YYZ=             10.3749  XYZ=             12.0536
 Hexadecapole moment (field-independent basis, Debye-Ang**3):
 XXXX=          -6140.1329 YYYY=          -1460.8355 ZZZZ=           -478.2346 XXXY=           -111.8974
 XXXZ=            -63.8352 YYYX=            -16.5914 YYYZ=            -17.1018 ZZZX=             12.4958
 ZZZY=              0.2912 XXYY=          -1398.6104 XXZZ=          -1168.1951 YYZZ=           -309.8887
 XXYZ=            -19.3317 YYXZ=            -29.7189 ZZXY=            -13.5399
 N-N= 1.734216402399D+03 E-N=-5.878130487357D+03  KE= 1.025687506544D+03
 1\1\ WCSS.PL-BEM-C2\SP\RPBE1PBE TD-FC\TZVP\C15H14O6\LT\30-Mar-2017\0\\
 # PBE1PBE/TZVP TD(nstates=20)\\Plumericin conformation 1c: ECD\\0,1\C,
 0,-0.42011,0.999663,-0.897637\O,0,0.697106,1.837553,-1.107506\C,0,1.90
 7518,1.415915,-0.675213\C,0,2.23616,0.150691,-0.361973\C,0,1.25412,-0.
 992361,-0.510355\C,0,1.021389,-1.807208,0.748621\C,0,-0.264273,-1.8794
 43,1.089639\C,0,-1.136304,-1.062519,0.186317\C,0,-0.176075,-0.524384,-
 0.916966\C,0,-1.754829,0.224099,0.818136\O,0,-0.938722,1.308851,0.3895
 82\C,0,3.617158,-0.193465,0.02105\O,0,4.006064,-1.335544,0.198159\O,0,
 4.426756,0.886903,0.155876\C,0,5.787418,0.592707,0.505174\O,0,-2.23875
 3,-1.831579,-0.344356\C,0,-3.411381,-1.116568,-0.343273\C,0,-3.170659,
 0.203215,0.297878\C,0,-4.119743,1.147172,0.346478\C,0,-3.987278,2.5085
 88,0.9507\O,0,-4.431178,-1.560569,-0.809482\H,0,2.621468,2.230509,-0.6
 52932\H,0,-1.132043,1.302399,-1.673575\H,0,-0.456089,-0.935948,-1.8884
 65\H,0,1.660654,-1.662319,-1.281534\H,0,-1.712823,0.222152,1.911762\H,
 0,1.848203,-2.27926,1.266443\H,0,-0.677117,-2.423897,1.933434\H,0,-5.0
 79286,0.890844,-0.103965\H,0,-2.979025,2.703384,1.321822\H,0,-4.705213
 ,2.631027,1.773206\H,0,-4.23622,3.279347,0.20934\H,0,6.25923,-0.025265
 ,-0.263615\H,0,6.285006,1.560472,0.576977\H,0,5.83441,0.065027,1.46146
 2\\Version=ES64L-G09RevE.01\State=1-A\HF=-1030.5299672\RMSD=8.211e-09\
 PG=C01 [X(C15H14O6)]\\@


 A warm smile is the universal language of kindness.
                             -- William Arthur Ward
 Job cpu time:       0 days  3 hours 17 minutes 57.0 seconds.
 File lengths (MBytes):  RWF=   1004 Int=      0 D2E=      0 Chk=    159 Scr=      1
 Normal termination of Gaussian 09 at Thu Mar 30 14:36:54 2017.
