 Entering Gaussian System, Link 0=g09
 Initial command:
 /home/chen/bkd/g09E01/g09/l1.exe "/home/chen/lt/g09scr/Gau-27004.inp" -scrdir="/home/chen/lt/g09scr/"
 Entering Link 1 = /home/chen/bkd/g09E01/g09/l1.exe PID=     27005.
  
 Copyright (c) 1988,1990,1992,1993,1995,1998,2003,2009,2015,
            Gaussian, Inc.  All Rights Reserved.
  
 This is part of the Gaussian(R) 09 program.  It is based on
 the Gaussian(R) 03 system (copyright 2003, Gaussian, Inc.),
 the Gaussian(R) 98 system (copyright 1998, Gaussian, Inc.),
 the Gaussian(R) 94 system (copyright 1995, Gaussian, Inc.),
 the Gaussian 92(TM) system (copyright 1992, Gaussian, Inc.),
 the Gaussian 90(TM) system (copyright 1990, Gaussian, Inc.),
 the Gaussian 88(TM) system (copyright 1988, Gaussian, Inc.),
 the Gaussian 86(TM) system (copyright 1986, Carnegie Mellon
 University), and the Gaussian 82(TM) system (copyright 1983,
 Carnegie Mellon University). Gaussian is a federally registered
 trademark of Gaussian, Inc.
  
 This software contains proprietary and confidential information,
 including trade secrets, belonging to Gaussian, Inc.
  
 This software is provided under written license and may be
 used, copied, transmitted, or stored only in accord with that
 written license.
  
 The following legend is applicable only to US Government
 contracts under FAR:
  
                    RESTRICTED RIGHTS LEGEND
  
 Use, reproduction and disclosure by the US Government is
 subject to restrictions as set forth in subparagraphs (a)
 and (c) of the Commercial Computer Software - Restricted
 Rights clause in FAR 52.227-19.
  
 Gaussian, Inc.
 340 Quinnipiac St., Bldg. 40, Wallingford CT 06492
  
  
 ---------------------------------------------------------------
 Warning -- This program may not be used in any manner that
 competes with the business of Gaussian, Inc. or will provide
 assistance to any competitor of Gaussian, Inc.  The licensee
 of this program is prohibited from giving any competitor of
 Gaussian, Inc. access to this program.  By using this program,
 the user acknowledges that Gaussian, Inc. is engaged in the
 business of creating and licensing software in the field of
 computational chemistry and represents and warrants to the
 licensee that it is not a competitor of Gaussian, Inc. and that
 it will not use this program in any manner prohibited above.
 ---------------------------------------------------------------
  

 Cite this work as:
 Gaussian 09, Revision E.01,
 M. J. Frisch, G. W. Trucks, H. B. Schlegel, G. E. Scuseria, 
 M. A. Robb, J. R. Cheeseman, G. Scalmani, V. Barone, B. Mennucci, 
 G. A. Petersson, H. Nakatsuji, M. Caricato, X. Li, H. P. Hratchian, 
 A. F. Izmaylov, J. Bloino, G. Zheng, J. L. Sonnenberg, M. Hada, 
 M. Ehara, K. Toyota, R. Fukuda, J. Hasegawa, M. Ishida, T. Nakajima, 
 Y. Honda, O. Kitao, H. Nakai, T. Vreven, J. A. Montgomery, Jr., 
 J. E. Peralta, F. Ogliaro, M. Bearpark, J. J. Heyd, E. Brothers, 
 K. N. Kudin, V. N. Staroverov, T. Keith, R. Kobayashi, J. Normand, 
 K. Raghavachari, A. Rendell, J. C. Burant, S. S. Iyengar, J. Tomasi, 
 M. Cossi, N. Rega, J. M. Millam, M. Klene, J. E. Knox, J. B. Cross, 
 V. Bakken, C. Adamo, J. Jaramillo, R. Gomperts, R. E. Stratmann, 
 O. Yazyev, A. J. Austin, R. Cammi, C. Pomelli, J. W. Ochterski, 
 R. L. Martin, K. Morokuma, V. G. Zakrzewski, G. A. Voth, 
 P. Salvador, J. J. Dannenberg, S. Dapprich, A. D. Daniels, 
 O. Farkas, J. B. Foresman, J. V. Ortiz, J. Cioslowski, 
 and D. J. Fox, Gaussian, Inc., Wallingford CT, 2013.
 
 ******************************************
 Gaussian 09:  ES64L-G09RevE.01 30-Nov-2015
                30-Mar-2017 
 ******************************************
 %mem=30GB
 %nprocshared=16
 Will use up to   16 processors via shared memory.
 -----------------------------
 # PBE1PBE/TZVP TD(nstates=20)
 -----------------------------
 1/38=1/1;
 2/12=2,17=6,18=5,40=1/2;
 3/5=19,7=101,11=9,16=1,25=1,30=1,74=-13/1,2,8,3;
 4//1;
 5/5=2,38=5/2;
 8/6=1,10=1,108=20/1;
 9/41=20,42=1,70=2/14;
 6/7=2,8=2,9=2,10=2/1;
 99/5=1,9=1/99;
 -------------------------------
 Plumericin conformation 1d: ECD
 -------------------------------
 Symbolic Z-matrix:
 Charge =  0 Multiplicity = 1
 C                    -0.51037   1.1454   -0.79138 
 O                     0.50772   2.1147   -0.92228 
 C                     1.75982   1.79382  -0.53343 
 C                     2.23146   0.5559   -0.30318 
 C                     1.37287  -0.67674  -0.49247 
 C                     1.21394  -1.55527   0.73549 
 C                    -0.059    -1.78661   1.05172 
 C                    -1.00669  -1.04148   0.16345 
 C                    -0.09809  -0.33999  -0.89178 
 C                    -1.78867   0.12935   0.83633 
 O                    -1.08839   1.31972   0.49567 
 C                     3.66917   0.46605   0.02657 
 O                     4.41689   1.40703   0.21924 
 O                     4.08923  -0.8269    0.07945 
 C                     5.48463  -1.00273   0.37032 
 O                    -1.99637  -1.91338  -0.42528 
 C                    -3.24379  -1.33714  -0.43659 
 C                    -3.17554  -0.0265    0.26255 
 C                    -4.2267    0.80236   0.31044 
 C                    -4.27175   2.14357   0.97014 
 O                    -4.19088  -1.87567  -0.95337 
 H                     2.39774   2.66816  -0.46741 
 H                    -1.23639   1.41089  -1.56807 
 H                    -0.32231  -0.72119  -1.88976 
 H                     1.83834  -1.27841  -1.28611 
 H                    -1.78222   0.07143   1.92926 
 H                     2.07754  -1.95188   1.25696 
 H                    -0.41693  -2.40477   1.8694 
 H                    -5.13457   0.4591   -0.18685 
 H                    -3.3092    2.43166   1.39768 
 H                    -5.03542   2.15293   1.75975 
 H                    -4.57055   2.91303   0.24595 
 H                     5.73267  -0.56905   1.34267 
 H                     5.64816  -2.08095   0.37657 
 H                     6.09981  -0.52489  -0.3966 
 
                          Input orientation:                          
 ---------------------------------------------------------------------
 Center     Atomic      Atomic             Coordinates (Angstroms)
 Number     Number       Type             X           Y           Z
 ---------------------------------------------------------------------
      1          6           0       -0.510365    1.145399   -0.791376
      2          8           0        0.507720    2.114699   -0.922280
      3          6           0        1.759817    1.793818   -0.533431
      4          6           0        2.231464    0.555895   -0.303180
      5          6           0        1.372869   -0.676740   -0.492465
      6          6           0        1.213936   -1.555267    0.735493
      7          6           0       -0.059003   -1.786608    1.051717
      8          6           0       -1.006690   -1.041479    0.163452
      9          6           0       -0.098086   -0.339986   -0.891778
     10          6           0       -1.788667    0.129346    0.836332
     11          8           0       -1.088391    1.319724    0.495665
     12          6           0        3.669167    0.466048    0.026567
     13          8           0        4.416889    1.407031    0.219241
     14          8           0        4.089231   -0.826898    0.079447
     15          6           0        5.484635   -1.002731    0.370320
     16          8           0       -1.996373   -1.913379   -0.425276
     17          6           0       -3.243792   -1.337141   -0.436589
     18          6           0       -3.175541   -0.026501    0.262546
     19          6           0       -4.226696    0.802360    0.310438
     20          6           0       -4.271749    2.143566    0.970144
     21          8           0       -4.190883   -1.875668   -0.953370
     22          1           0        2.397736    2.668158   -0.467413
     23          1           0       -1.236385    1.410887   -1.568070
     24          1           0       -0.322309   -0.721187   -1.889757
     25          1           0        1.838335   -1.278408   -1.286109
     26          1           0       -1.782224    0.071428    1.929264
     27          1           0        2.077544   -1.951876    1.256955
     28          1           0       -0.416933   -2.404768    1.869404
     29          1           0       -5.134569    0.459104   -0.186854
     30          1           0       -3.309202    2.431661    1.397681
     31          1           0       -5.035417    2.152932    1.759752
     32          1           0       -4.570552    2.913025    0.245947
     33          1           0        5.732670   -0.569054    1.342666
     34          1           0        5.648163   -2.080951    0.376573
     35          1           0        6.099809   -0.524891   -0.396599
 ---------------------------------------------------------------------
                    Distance matrix (angstroms):
                    1          2          3          4          5
     1  C    0.000000
     2  O    1.411799   0.000000
     3  C    2.375018   1.349783   0.000000
     4  C    2.846661   2.405088   1.344589   0.000000
     5  C    2.637444   2.953871   2.501013   1.514068   0.000000
     6  C    3.549386   4.088472   3.622779   2.563437   1.518206
     7  C    3.492475   4.408859   4.317436   3.545322   2.380454
     8  C    2.437308   3.665203   4.022203   3.640740   2.495108
     9  C    1.544805   2.528519   2.851900   2.564343   1.560949
    10  C    2.305613   3.508238   4.151922   4.200224   3.522895
    11  O    1.421611   2.278184   3.065305   3.499003   3.319649
    12  C    4.312660   3.689595   2.392110   1.477767   2.616934
    13  O    5.036629   4.133457   2.788575   2.402798   3.756952
    14  O    5.079820   4.741695   3.559486   2.347300   2.779974
    15  C    6.473332   6.013224   4.744652   3.669610   4.213940
    16  O    3.420288   4.768952   5.278633   4.897635   3.589649
    17  C    3.709515   5.121029   5.903252   5.794809   4.663991
    18  C    3.096331   4.422099   5.320235   5.467626   4.656274
    19  C    3.891373   5.065227   6.126454   6.491926   5.847009
    20  C    4.271686   5.140567   6.225982   6.814237   6.477273
    21  O    4.764378   6.164484   7.003735   6.897955   5.710096
    22  H    3.298606   2.021233   1.084329   2.125153   3.498474
    23  H    1.095830   1.988542   3.192858   3.789055   3.510459
    24  H    2.173925   3.109214   3.535551   3.266485   2.197278
    25  H    3.411157   3.662797   3.164058   2.117869   1.099333
    26  H    3.189502   4.189284   4.645164   4.618247   4.047115
    27  H    4.526151   4.873443   4.163731   2.957470   2.276622
    28  H    4.437586   5.392037   5.304713   4.527654   3.430437
    29  H    4.713779   5.925983   7.030941   7.367587   6.612888
    30  H    3.778879   4.477899   5.461775   6.091831   5.929300
    31  H    5.291453   6.158013   7.180728   7.720996   7.358373
    32  H    4.548149   5.271710   6.475618   7.219766   6.982544
    33  H    6.816815   6.295444   4.988634   4.028990   4.731508
    34  H    7.049887   6.761261   5.564277   4.369079   4.583140
    35  H    6.829357   6.206064   4.922465   4.017576   4.730350
                    6          7          8          9         10
     6  C    0.000000
     7  C    1.331875   0.000000
     8  C    2.349976   1.497445   0.000000
     9  C    2.417917   2.423100   1.559219   0.000000
    10  C    3.444374   2.590175   1.560476   2.462661   0.000000
    11  O    3.691043   3.319357   2.385858   2.379147   1.422477
    12  C    3.258289   4.474890   4.914775   3.960460   5.527842
    13  O    4.393249   5.561111   5.950926   4.967034   6.365705
    14  O    3.037802   4.367402   5.101129   4.325966   6.003079
    15  C    4.321749   5.640096   6.494736   5.761848   7.375614
    16  O    3.432450   2.439463   1.444397   2.509319   2.409880
    17  C    4.614401   3.544003   2.334971   3.331213   2.426582
    18  C    4.672078   3.665184   2.396647   3.301737   1.508953
    19  C    5.944708   4.962047   3.713460   4.449236   2.583311
    20  C    6.620360   5.761957   4.632049   5.201370   3.200107
    21  O    5.671594   4.593554   3.475953   4.371853   3.604685
    22  H    4.548152   5.309262   5.074398   3.931685   5.066684
    23  H    4.484255   4.298079   3.010818   2.195143   2.780020
    24  H    3.153994   3.139542   2.187837   1.091582   3.210167
    25  H    2.133870   3.053455   3.201801   2.187661   4.431892
    26  H    3.612229   2.681768   2.226681   3.311172   1.094485
    27  H    1.083993   2.152735   3.396626   3.456676   4.410895
    28  H    2.160356   1.085748   2.262000   3.462530   3.061148
    29  H    6.723982   5.686708   4.406115   5.147973   3.514358
    30  H    6.065712   5.336411   4.345985   4.820261   2.815634
    31  H    7.338546   6.386391   5.383593   6.133717   3.935605
    32  H    7.325680   6.564289   5.324098   5.646189   3.979486
    33  H    4.664786   5.925417   6.858039   6.248434   7.570644
    34  H    4.479680   5.754494   6.738916   6.136697   7.771952
    35  H    5.120065   6.451396   7.147227   6.220393   8.011005
                   11         12         13         14         15
    11  O    0.000000
    12  C    4.856251   0.000000
    13  O    5.512907   1.217235   0.000000
    14  O    5.620409   1.360500   2.262154   0.000000
    15  C    6.972387   2.360382   2.640049   1.436202   0.000000
    16  O    3.482172   6.161508   7.250549   6.202400   7.578109
    17  C    3.545953   7.159260   8.163739   7.368844   8.772022
    18  C    2.494566   6.866463   7.726699   7.311024   8.715692
    19  C    3.186053   7.908119   8.665189   8.477174   9.877848
    20  C    3.322290   8.170835   8.752072   8.917566  10.268690
    21  O    4.683555   8.259800   9.286812   8.409930   9.804582
    22  H    3.859906   2.590336   2.477683   3.921177   4.868898
    23  H    2.071042   5.244047   5.929081   6.007011   7.399663
    24  H    3.231476   4.584071   5.606887   4.832248   6.237613
    25  H    4.300085   2.849244   4.015794   2.671168   4.014381
    26  H    2.023574   5.787369   6.567878   6.221157   7.509418
    27  H    4.615850   3.145389   4.222753   2.588240   3.646268
    28  H    4.026146   5.322955   6.373279   5.098935   6.248317
    29  H    4.192619   8.806325   9.606968   9.316824  10.733820
    30  H    2.642355   7.378430   7.882326   8.191017   9.496425
    31  H    4.227430   9.034340   9.606021   9.744845  11.070692
    32  H    3.837501   8.598185   9.112784   9.434330  10.791450
    33  H    7.128237   2.657367   2.626457   2.088803   1.093185
    34  H    7.547180   3.244400   3.702271   2.022672   1.090568
    35  H    7.474554   2.658769   2.635109   2.088122   1.093131
                   16         17         18         19         20
    16  O    0.000000
    17  C    1.374130   0.000000
    18  C    2.328915   1.487019   0.000000
    19  C    3.590384   2.470145   1.339489   0.000000
    20  C    4.856268   3.892418   2.532105   1.495351   0.000000
    21  O    2.257472   1.205842   2.434911   2.961474   4.456533
    22  H    6.348264   6.918830   6.233413   6.925991   6.842792
    23  H    3.596429   3.586306   3.029450   3.583442   4.024026
    24  H    2.523592   3.320566   3.640869   4.733528   5.655433
    25  H    3.981106   5.152975   5.394864   6.607810   7.357561
    26  H    3.086937   3.117292   2.174597   3.021639   3.378077
    27  H    4.407741   5.618061   5.682501   6.944433   7.560981
    28  H    2.828719   3.801127   3.980963   5.218270   6.029562
    29  H    3.941294   2.619905   2.067744   1.090577   2.218223
    30  H    4.891428   4.191980   2.710896   2.162987   1.091917
    31  H    5.526755   4.496048   3.232753   2.139763   1.098525
    32  H    5.510999   4.504449   3.253789   2.139463   1.098095
    33  H    8.041824   9.183277   8.989841  10.106198  10.372342
    34  H    7.688301   8.959986   9.060437  10.287405  10.798311
    35  H    8.214431   9.378925   9.312088  10.435430  10.796197
                   21         22         23         24         25
    21  O    0.000000
    22  H    8.018255   0.000000
    23  H    4.461878   3.999876   0.000000
    24  H    4.144335   4.572676   2.341956   0.000000
    25  H    6.067858   4.069223   4.094596   2.311551   0.000000
    26  H    4.231123   5.473494   3.784632   4.164674   5.026841
    27  H    6.647144   4.941729   5.501915   4.144356   2.641582
    28  H    4.742436   6.254411   5.200668   4.120035   4.038834
    29  H    2.632347   7.854569   4.243759   5.239352   7.269711
    30  H    4.985768   6.008631   3.759552   5.446947   6.889447
    31  H    4.929897   7.776727   5.104672   6.617618   8.264371
    32  H    4.951171   7.008986   4.082125   5.984672   7.809554
    33  H   10.269174   4.987756   7.807706   6.865455   4.751788
    34  H    9.930645   5.816496   7.960626   6.529299   4.233601
    35  H   10.393889   4.889368   7.677195   6.596336   4.418051
                   26         27         28         29         30
    26  H    0.000000
    27  H    4.409486   0.000000
    28  H    2.828277   2.608183   0.000000
    29  H    3.983273   7.740283   5.889486   0.000000
    30  H    2.860934   6.946383   5.654979   3.119887   0.000000
    31  H    3.865832   8.227786   6.489611   2.582278   1.785666
    32  H    4.322384   8.299794   6.940251   2.554831   1.774600
    33  H    7.564915   3.908899   6.439326  11.022406   9.526949
    34  H    7.890135   3.679817   6.254502  11.092188  10.081702
    35  H    8.239641   4.577023   7.150988  11.279339  10.024476
                   31         32         33         34         35
    31  H    0.000000
    32  H    1.756544   0.000000
    33  H   11.114624  10.930876   0.000000
    34  H   11.574879  11.374489   1.796193   0.000000
    35  H   11.653920  11.228924   1.778141   1.795300   0.000000
 Stoichiometry    C15H14O6
 Framework group  C1[X(C15H14O6)]
 Deg. of freedom    99
 Full point group                 C1      NOp   1
 Largest Abelian subgroup         C1      NOp   1
 Largest concise Abelian subgroup C1      NOp   1
                         Standard orientation:                         
 ---------------------------------------------------------------------
 Center     Atomic      Atomic             Coordinates (Angstroms)
 Number     Number       Type             X           Y           Z
 ---------------------------------------------------------------------
      1          6           0       -0.510365    1.145399   -0.791376
      2          8           0        0.507720    2.114699   -0.922280
      3          6           0        1.759817    1.793818   -0.533431
      4          6           0        2.231464    0.555895   -0.303180
      5          6           0        1.372869   -0.676740   -0.492465
      6          6           0        1.213936   -1.555267    0.735493
      7          6           0       -0.059003   -1.786608    1.051717
      8          6           0       -1.006690   -1.041479    0.163452
      9          6           0       -0.098086   -0.339986   -0.891778
     10          6           0       -1.788667    0.129346    0.836332
     11          8           0       -1.088391    1.319724    0.495665
     12          6           0        3.669167    0.466048    0.026567
     13          8           0        4.416889    1.407031    0.219241
     14          8           0        4.089231   -0.826898    0.079447
     15          6           0        5.484635   -1.002731    0.370320
     16          8           0       -1.996373   -1.913379   -0.425276
     17          6           0       -3.243792   -1.337141   -0.436589
     18          6           0       -3.175541   -0.026501    0.262546
     19          6           0       -4.226696    0.802360    0.310438
     20          6           0       -4.271749    2.143566    0.970144
     21          8           0       -4.190883   -1.875668   -0.953370
     22          1           0        2.397736    2.668158   -0.467413
     23          1           0       -1.236385    1.410887   -1.568070
     24          1           0       -0.322309   -0.721187   -1.889757
     25          1           0        1.838335   -1.278408   -1.286109
     26          1           0       -1.782224    0.071428    1.929264
     27          1           0        2.077544   -1.951876    1.256955
     28          1           0       -0.416933   -2.404768    1.869404
     29          1           0       -5.134569    0.459104   -0.186854
     30          1           0       -3.309202    2.431661    1.397681
     31          1           0       -5.035417    2.152932    1.759752
     32          1           0       -4.570552    2.913025    0.245947
     33          1           0        5.732670   -0.569054    1.342666
     34          1           0        5.648163   -2.080951    0.376573
     35          1           0        6.099809   -0.524891   -0.396599
 ---------------------------------------------------------------------
 Rotational constants (GHZ):      0.7483348      0.1886804      0.1633566
 Standard basis: TZVP (5D, 7F)
 There are   504 symmetry adapted cartesian basis functions of A   symmetry.
 There are   483 symmetry adapted basis functions of A   symmetry.
   483 basis functions,   847 primitive gaussians,   504 cartesian basis functions
    76 alpha electrons       76 beta electrons
       nuclear repulsion energy      1736.3282346566 Hartrees.
 NAtoms=   35 NActive=   35 NUniq=   35 SFac= 1.00D+00 NAtFMM=   60 NAOKFM=F Big=F
 Integral buffers will be    131072 words long.
 Regular integral format.
 Two-electron integral symmetry is turned on.
 One-electron integrals computed using PRISM.
 NBasis=   483 RedAO= T EigKep=  2.01D-05  NBF=   483
 NBsUse=   483 1.00D-06 EigRej= -1.00D+00 NBFU=   483
 ExpMin= 9.52D-02 ExpMax= 2.70D+04 ExpMxC= 9.22D+02 IAcc=2 IRadAn=         4 AccDes= 0.00D+00
 Harris functional with IExCor= 1009 and IRadAn=       4 diagonalized for initial guess.
 HarFok:  IExCor= 1009 AccDes= 0.00D+00 IRadAn=         4 IDoV= 1 UseB2=F ITyADJ=14
 ICtDFT=  3500011 ScaDFX=  1.000000  1.000000  1.000000  1.000000
 FoFCou: FMM=F IPFlag=           0 FMFlag=      100000 FMFlg1=           0
         NFxFlg=           0 DoJE=T BraDBF=F KetDBF=T FulRan=T
         wScrn=  0.000000 ICntrl=     500 IOpCl=  0 I1Cent=   200000004 NGrid=           0
         NMat0=    1 NMatS0=      1 NMatT0=    0 NMatD0=    1 NMtDS0=    0 NMtDT0=    0
 Petite list used in FoFCou.
 Requested convergence on RMS density matrix=1.00D-08 within 128 cycles.
 Requested convergence on MAX density matrix=1.00D-06.
 Requested convergence on             energy=1.00D-06.
 No special actions if energy rises.
 Integral accuracy reduced to 1.0D-05 until final iterations.
 Problem detected with inexpensive integrals.
 Switching to full accuracy and repeating last cycle.
 SCF Done:  E(RPBE1PBE) =  -1030.52861001     A.U. after   18 cycles
            NFock= 18  Conv=0.31D-08     -V/T= 2.0047
 DoSCS=F DFT=T ScalE2(SS,OS)=  1.000000  1.000000
 ExpMin= 9.52D-02 ExpMax= 2.70D+04 ExpMxC= 9.22D+02 IAcc=3 IRadAn=         5 AccDes= 0.00D+00
 HarFok:  IExCor=  205 AccDes= 0.00D+00 IRadAn=         5 IDoV=-2 UseB2=F ITyADJ=14
 ICtDFT= 12500011 ScaDFX=  1.000000  1.000000  1.000000  1.000000
 Range of M.O.s used for correlation:    22   483
 NBasis=   483 NAE=    76 NBE=    76 NFC=    21 NFV=     0
 NROrb=    462 NOA=    55 NOB=    55 NVA=   407 NVB=   407

 **** Warning!!: The largest alpha MO coefficient is  0.46310907D+02

 Would need an additional         17874700000 words for in-memory AO integral storage.
 Orbital symmetries:
       Occupied  (A) (A) (A) (A) (A) (A) (A) (A) (A) (A) (A) (A)
                 (A) (A) (A) (A) (A) (A) (A) (A) (A) (A) (A) (A)
                 (A) (A) (A) (A) (A) (A) (A) (A) (A) (A) (A) (A)
                 (A) (A) (A) (A) (A) (A) (A) (A) (A) (A) (A) (A)
                 (A) (A) (A) (A) (A) (A) (A) (A) (A) (A) (A) (A)
                 (A) (A) (A) (A) (A) (A) (A) (A) (A) (A) (A) (A)
                 (A) (A) (A) (A)
       Virtual   (A) (A) (A) (A) (A) (A) (A) (A) (A) (A) (A) (A)
                 (A) (A) (A) (A) (A) (A) (A) (A) (A) (A) (A) (A)
                 (A) (A) (A) (A) (A) (A) (A) (A) (A) (A) (A) (A)
                 (A) (A) (A) (A) (A) (A) (A) (A) (A) (A) (A) (A)
                 (A) (A) (A) (A) (A) (A) (A) (A) (A) (A) (A) (A)
                 (A) (A) (A) (A) (A) (A) (A) (A) (A) (A) (A) (A)
                 (A) (A) (A) (A) (A) (A) (A) (A) (A) (A) (A) (A)
                 (A) (A) (A) (A) (A) (A) (A) (A) (A) (A) (A) (A)
                 (A) (A) (A) (A) (A) (A) (A) (A) (A) (A) (A) (A)
                 (A) (A) (A) (A) (A) (A) (A) (A) (A) (A) (A) (A)
                 (A) (A) (A) (A) (A) (A) (A) (A) (A) (A) (A) (A)
                 (A) (A) (A) (A) (A) (A) (A) (A) (A) (A) (A) (A)
                 (A) (A) (A) (A) (A) (A) (A) (A) (A) (A) (A) (A)
                 (A) (A) (A) (A) (A) (A) (A) (A) (A) (A) (A) (A)
                 (A) (A) (A) (A) (A) (A) (A) (A) (A) (A) (A) (A)
                 (A) (A) (A) (A) (A) (A) (A) (A) (A) (A) (A) (A)
                 (A) (A) (A) (A) (A) (A) (A) (A) (A) (A) (A) (A)
                 (A) (A) (A) (A) (A) (A) (A) (A) (A) (A) (A) (A)
                 (A) (A) (A) (A) (A) (A) (A) (A) (A) (A) (A) (A)
                 (A) (A) (A) (A) (A) (A) (A) (A) (A) (A) (A) (A)
                 (A) (A) (A) (A) (A) (A) (A) (A) (A) (A) (A) (A)
                 (A) (A) (A) (A) (A) (A) (A) (A) (A) (A) (A) (A)
                 (A) (A) (A) (A) (A) (A) (A) (A) (A) (A) (A) (A)
                 (A) (A) (A) (A) (A) (A) (A) (A) (A) (A) (A) (A)
                 (A) (A) (A) (A) (A) (A) (A) (A) (A) (A) (A) (A)
                 (A) (A) (A) (A) (A) (A) (A) (A) (A) (A) (A) (A)
                 (A) (A) (A) (A) (A) (A) (A) (A) (A) (A) (A) (A)
                 (A) (A) (A) (A) (A) (A) (A) (A) (A) (A) (A) (A)
                 (A) (A) (A) (A) (A) (A) (A) (A) (A) (A) (A) (A)
                 (A) (A) (A) (A) (A) (A) (A) (A) (A) (A) (A) (A)
                 (A) (A) (A) (A) (A) (A) (A) (A) (A) (A) (A) (A)
                 (A) (A) (A) (A) (A) (A) (A) (A) (A) (A) (A) (A)
                 (A) (A) (A) (A) (A) (A) (A) (A) (A) (A) (A) (A)
                 (A) (A) (A) (A) (A) (A) (A) (A) (A) (A) (A)
    80 initial guesses have been made.
 Convergence on wavefunction:    0.001000000000000
 Iteration     1 Dimension    80 NMult     0 NNew     80
 CISAX will form    80 AO SS matrices at one time.
 New state      1 was old state      4
 New state      2 was old state      1
 New state      3 was old state      2
 New state      4 was old state     12
 New state      5 was old state      7
 New state      6 was old state      9
 New state      7 was old state     13
 New state      8 was old state      6
 New state      9 was old state      8
 New state     11 was old state      3
 New state     12 was old state     11
 New state     13 was old state     16
 New state     15 was old state     17
 New state     16 was old state      5
 New state     17 was old state     21
 New state     19 was old state     22
 New state     20 was old state     19
 Iteration     2 Dimension   120 NMult    80 NNew     40
 New state      5 was old state     10
 New state      6 was old state      5
 New state      8 was old state      6
 New state      9 was old state      8
 New state     10 was old state     16
 New state     11 was old state      9
 New state     13 was old state     11
 New state     14 was old state     13
 New state     16 was old state     14
 New state     20 was old state     24
 Iteration     3 Dimension   160 NMult   120 NNew     40
 Iteration     4 Dimension   200 NMult   160 NNew     40
 Iteration     5 Dimension   226 NMult   200 NNew     26
 Iteration     6 Dimension   238 NMult   226 NNew     12
 Iteration     7 Dimension   240 NMult   238 NNew      2
 ***********************************************************************
 Excited states from <AA,BB:AA,BB> singles matrix:
 ***********************************************************************
 
 Ground to excited state transition densities written to RWF  633
 Ground to excited state transition electric dipole moments (Au):
       state          X           Y           Z        Dip. S.      Osc.
         1         0.0467     -0.0248     -0.0099      0.0029      0.0003
         2         0.3852     -0.1638      0.0097      0.1753      0.0212
         3        -0.3548      0.0846     -0.0035      0.1331      0.0168
         4         0.0537     -0.0355      0.0465      0.0063      0.0008
         5         1.0434     -0.6426      0.2892      1.5852      0.2149
         6        -0.1996      0.0082      0.0461      0.0420      0.0059
         7        -0.4906      0.3748      0.0878      0.3889      0.0560
         8        -0.4505      0.0969     -0.0703      0.2173      0.0313
         9        -0.9051      1.0108      0.3693      1.9775      0.2867
        10         0.0979     -0.3842     -0.1567      0.1817      0.0266
        11         0.0531     -0.0699      0.0169      0.0080      0.0012
        12        -0.6964      0.0924     -0.0217      0.4940      0.0749
        13         0.1718     -0.2449      0.0042      0.0895      0.0140
        14         0.4816     -0.1630     -0.0235      0.2590      0.0420
        15        -0.2417     -0.0419      0.0183      0.0605      0.0099
        16         0.0780     -0.1947      0.0309      0.0449      0.0074
        17        -0.7173     -0.2228      0.0361      0.5654      0.0947
        18         0.6242     -0.3088      0.0235      0.4855      0.0818
        19        -0.4682     -0.1694     -0.0129      0.2481      0.0420
        20         0.4203      0.2336     -0.0631      0.2352      0.0402
 Ground to excited state transition velocity dipole moments (Au):
       state          X           Y           Z        Dip. S.      Osc.
         1        -0.0080      0.0049      0.0012      0.0001      0.0004
         2        -0.0680      0.0298     -0.0018      0.0055      0.0203
         3         0.0638     -0.0136     -0.0005      0.0043      0.0150
         4        -0.0110      0.0070     -0.0083      0.0002      0.0008
         5        -0.2047      0.1281     -0.0568      0.0616      0.2019
         6         0.0425     -0.0019     -0.0107      0.0019      0.0061
         7         0.1045     -0.0796     -0.0195      0.0176      0.0545
         8         0.0924     -0.0194      0.0155      0.0092      0.0283
         9         0.1975     -0.2139     -0.0765      0.0906      0.2778
        10        -0.0255      0.0845      0.0328      0.0089      0.0269
        11        -0.0130      0.0142     -0.0046      0.0004      0.0012
        12         0.1504     -0.0155      0.0051      0.0229      0.0671
        13        -0.0407      0.0569     -0.0021      0.0049      0.0139
        14        -0.1123      0.0398      0.0069      0.0142      0.0390
        15         0.0582      0.0081     -0.0061      0.0035      0.0094
        16        -0.0161      0.0416     -0.0074      0.0020      0.0055
        17         0.1732      0.0528     -0.0102      0.0329      0.0872
        18        -0.1477      0.0638     -0.0050      0.0259      0.0684
        19         0.1185      0.0379      0.0043      0.0155      0.0406
        20        -0.1037     -0.0577      0.0160      0.0143      0.0373
 Ground to excited state transition magnetic dipole moments (Au):
       state          X           Y           Z
         1        -0.3302     -0.3594     -0.2096
         2         0.0438      0.1624      0.2437
         3        -0.1032      0.1254      0.3960
         4        -0.4118     -0.3096     -0.0237
         5         0.1265      0.6262      1.7671
         6         0.0893      0.1329      0.2004
         7        -0.1133     -0.2454      0.2162
         8         0.1055     -0.2876     -0.2724
         9         0.1151     -0.3138      1.9491
        10        -0.0135      0.2623     -0.2981
        11         0.0209      0.1765     -0.0634
        12         0.0400     -0.0669      0.6988
        13        -0.0263      0.1534     -0.1792
        14        -0.1236     -0.3474     -0.7724
        15        -0.2316      0.2123      0.1546
        16         0.0268      0.1312      0.4280
        17         0.2309      0.7975      0.8717
        18         0.0217     -0.0799      0.2408
        19         0.0796      0.0904      0.8966
        20         0.0081     -0.3878     -0.5636
 Ground to excited state transition velocity quadrupole moments (Au):
       state          XX          YY          ZZ          XY          XZ          YZ
         1         0.0206      0.0061      0.0213     -0.0603      0.0024      0.0043
         2         0.0389      0.0633     -0.0158     -0.1435     -0.0772     -0.0044
         3        -0.3968     -0.0653      0.0108      0.0811      0.0258     -0.0030
         4        -0.1841      0.0425      0.0060      0.0150     -0.0384     -0.0492
         5        -1.9899      0.4880      0.0668      0.0865     -0.1846     -0.2333
         6        -0.0097     -0.0733      0.0112      0.0166      0.0413      0.0571
         7        -0.0408     -0.0733     -0.0668      0.6566      0.2550     -0.0203
         8         0.5822     -0.1286     -0.0305      0.0375      0.0237     -0.0089
         9        -2.2849     -0.1214      0.0931      1.9119      0.7216     -0.0993
        10         0.0529      0.0739     -0.0239     -0.8113     -0.3610     -0.0233
        11         0.1505      0.0133     -0.0261     -0.0916     -0.0217      0.0504
        12        -1.2028     -0.0159     -0.0212     -0.0279     -0.0847     -0.1165
        13        -0.0837      0.1324     -0.0216     -0.2767     -0.1527     -0.0382
        14        -0.1749      0.0779      0.0304     -0.1847     -0.1917     -0.0551
        15         0.2326      0.0216     -0.0285     -0.1223      0.0229     -0.0598
        16        -0.3965      0.0997     -0.0242      0.3875     -0.0230      0.0348
        17         0.3995     -0.0091     -0.1416     -0.4143      0.0109      0.0627
        18        -1.1319      0.2471      0.0520      0.8613     -0.1195      0.0537
        19         0.0846     -0.0751     -0.0357      0.0936      0.0346      0.0709
        20        -0.1435      0.0553      0.0210     -0.0664     -0.0416      0.0398
 <0|del|b> * <b|rxdel|0> + <0|del|b> * <b|delr+rdel|0>
 Rotatory Strengths (R) in cgs (10**-40 erg-esu-cm/Gauss)
       state          XX          YY          ZZ    R(velocity)    E-M Angle
         1        -4.3760      5.1361      1.9961      0.9188       82.51
         2        13.5779     -6.6240     -1.4320      1.8406       86.31
         3        -2.9917    -12.9721    -15.8109    -10.5916      107.70
         4        -3.4024     10.0007      2.8628      3.1537       71.34
         5        -2.4901   -128.0192    -29.6730    -53.3941       95.67
         6        -4.1613      7.1302      1.7205      1.5631       82.84
         7        37.2710     -8.7715    -17.1626      3.7790       85.68
         8         3.9087      6.7526     25.6962     12.1192       73.57
         9      -120.1443      0.4707    -72.9880    -64.2206       95.71
        10        26.2325     28.6039    -13.8363     13.6667       70.11
        11         5.5867     -1.6737      4.0971      2.6700       47.43
        12         4.9372    -12.0733     40.2366     11.0335       84.26
        13        27.5708      3.6409     -0.6705     10.1804       52.23
        14       -18.6451     23.2626    -20.0484     -5.1436       92.98
        15         1.9145    -26.7570    -11.6257    -12.1561      127.89
        16         0.5161     -1.8461      6.6357      1.7686       84.76
        17        51.8693     53.1611    101.0384     68.6896       70.40
        18        -4.1176    -11.2629    -11.2074     -8.8626      103.40
        19         8.8663     29.6032      8.0443     15.5046       81.46
        20        13.6777    -17.8194     38.7262     11.5282       81.20
 1/2[<0|r|b>*<b|rxdel|0> + (<0|rxdel|b>*<b|r|0>)*]
 Rotatory Strengths (R) in cgs (10**-40 erg-esu-cm/Gauss)
       state          XX          YY          ZZ     R(length)
         1        10.9019     -6.2997     -1.4625      1.0466
         2       -11.9372     18.8047     -1.6749      1.7309
         3       -25.8835     -7.4989      0.9927    -10.7966
         4        15.6424     -7.7771      0.7789      2.8814
         5       -93.3090    284.5720   -361.3555    -56.6975
         6        12.6084     -0.7721     -6.5274      1.7697
         7       -39.3057     65.0470    -13.4235      4.1059
         8        33.6240     19.7101    -13.5458     13.2628
         9        73.6854    224.2875   -509.0452    -70.3575
        10         0.9320     71.2512    -33.0304     13.0509
        11        -0.7850      8.7272      0.7567      2.8996
        12        19.6927      4.3711     10.7052     11.5897
        13         3.1996     26.5636      0.5329     10.0987
        14        42.0948    -40.0417    -12.8129     -3.5866
        15       -39.5832      6.2978     -1.9954    -11.7603
        16        -1.4780     18.0605     -9.3462      2.4121
        17       117.1386    125.6396    -22.2247     73.5178
        18        -9.5748    -17.4543     -4.0020    -10.3437
        19        26.3685     10.8330      8.1489     15.1168
        20        -2.4049     64.0688    -25.1601     12.1679
  1/2[<0|del|b>*<b|r|0> + (<0|r|b>*<b|del|0>)*] (Au)
       state          X           Y           Z        Dip. S.   Osc.(frdel)
         1        -0.0004     -0.0001     -0.0000      0.0005      0.0003
         2        -0.0262     -0.0049     -0.0000      0.0311      0.0207
         3        -0.0226     -0.0012      0.0000      0.0238      0.0159
         4        -0.0006     -0.0003     -0.0004      0.0012      0.0008
         5        -0.2136     -0.0823     -0.0164      0.3124      0.2083
         6        -0.0085     -0.0000     -0.0005      0.0090      0.0060
         7        -0.0513     -0.0298     -0.0017      0.0828      0.0552
         8        -0.0416     -0.0019     -0.0011      0.0446      0.0297
         9        -0.1788     -0.2162     -0.0283      0.4233      0.2822
        10        -0.0025     -0.0325     -0.0051      0.0401      0.0267
        11        -0.0007     -0.0010     -0.0001      0.0018      0.0012
        12        -0.1047     -0.0014     -0.0001      0.1063      0.0708
        13        -0.0070     -0.0139     -0.0000      0.0209      0.0140
        14        -0.0541     -0.0065     -0.0002      0.0607      0.0405
        15        -0.0141     -0.0003     -0.0001      0.0145      0.0097
        16        -0.0013     -0.0081     -0.0002      0.0096      0.0064
        17        -0.1242     -0.0118     -0.0004      0.1363      0.0909
        18        -0.0922     -0.0197     -0.0001      0.1120      0.0747
        19        -0.0555     -0.0064     -0.0001      0.0620      0.0413
        20        -0.0436     -0.0135     -0.0010      0.0581      0.0387

 Excitation energies and oscillator strengths:
 
 Excited State   1:      Singlet-A      4.5718 eV  271.19 nm  f=0.0003  <S**2>=0.000
      70 -> 77         0.11532
      73 -> 77         0.13096
      74 -> 77         0.66180
 This state for optimization and/or second-order correction.
 Total Energy, E(TD-HF/TD-KS) =  -1030.36059859    
 Copying the excited state density for this state as the 1-particle RhoCI density.
 
 Excited State   2:      Singlet-A      4.9353 eV  251.22 nm  f=0.0212  <S**2>=0.000
      76 -> 77         0.70000
 
 Excited State   3:      Singlet-A      5.1399 eV  241.22 nm  f=0.0168  <S**2>=0.000
      70 -> 77         0.11374
      75 -> 77         0.68064
 
 Excited State   4:      Singlet-A      5.1977 eV  238.53 nm  f=0.0008  <S**2>=0.000
      72 -> 77         0.11215
      72 -> 78         0.63413
      73 -> 78         0.17221
      74 -> 78        -0.12789
 
 Excited State   5:      Singlet-A      5.5325 eV  224.10 nm  f=0.2149  <S**2>=0.000
      76 -> 78         0.68356
      76 -> 79         0.10812
 
 Excited State   6:      Singlet-A      5.7586 eV  215.30 nm  f=0.0059  <S**2>=0.000
      75 -> 78         0.68954
 
 Excited State   7:      Singlet-A      5.8734 eV  211.09 nm  f=0.0560  <S**2>=0.000
      70 -> 77         0.38462
      71 -> 77         0.30845
      73 -> 77         0.18358
      74 -> 77        -0.16666
      76 -> 79         0.39465
 
 Excited State   8:      Singlet-A      5.8742 eV  211.07 nm  f=0.0313  <S**2>=0.000
      70 -> 77        -0.29632
      71 -> 77        -0.22234
      76 -> 79         0.55531
 
 Excited State   9:      Singlet-A      5.9172 eV  209.53 nm  f=0.2867  <S**2>=0.000
      70 -> 77        -0.11812
      73 -> 77         0.65344
      76 -> 79        -0.12733
 
 Excited State  10:      Singlet-A      5.9755 eV  207.49 nm  f=0.0266  <S**2>=0.000
      71 -> 77         0.22790
      72 -> 77         0.64547
 
 Excited State  11:      Singlet-A      6.0681 eV  204.32 nm  f=0.0012  <S**2>=0.000
      70 -> 78        -0.11500
      71 -> 78        -0.15078
      72 -> 78         0.11007
      74 -> 78         0.65545
 
 Excited State  12:      Singlet-A      6.1882 eV  200.35 nm  f=0.0749  <S**2>=0.000
      70 -> 77        -0.39680
      71 -> 77         0.51589
      72 -> 77        -0.23071
 
 Excited State  13:      Singlet-A      6.4077 eV  193.49 nm  f=0.0140  <S**2>=0.000
      72 -> 78        -0.18100
      73 -> 78         0.67496
 
 Excited State  14:      Singlet-A      6.6174 eV  187.36 nm  f=0.0420  <S**2>=0.000
      74 -> 79         0.56666
      75 -> 79        -0.37724
 
 Excited State  15:      Singlet-A      6.7023 eV  184.99 nm  f=0.0099  <S**2>=0.000
      68 -> 78         0.13161
      71 -> 78         0.61712
      71 -> 79         0.10713
      74 -> 78         0.12863
      75 -> 79         0.17917
 
 Excited State  16:      Singlet-A      6.7224 eV  184.43 nm  f=0.0074  <S**2>=0.000
      69 -> 77         0.64276
      69 -> 78         0.22250
      70 -> 77        -0.14151
 
 Excited State  17:      Singlet-A      6.8371 eV  181.34 nm  f=0.0947  <S**2>=0.000
      69 -> 77        -0.11086
      70 -> 78        -0.10710
      70 -> 79        -0.11706
      71 -> 78        -0.19389
      71 -> 79         0.15205
      72 -> 79         0.15991
      73 -> 79         0.29946
      74 -> 79         0.29668
      75 -> 79         0.38065
      76 -> 80         0.10251
 
 Excited State  18:      Singlet-A      6.8769 eV  180.29 nm  f=0.0818  <S**2>=0.000
      69 -> 77        -0.20535
      69 -> 78         0.52140
      70 -> 78        -0.27807
      72 -> 79         0.11181
      75 -> 79        -0.13356
      76 -> 80        -0.21020
 
 Excited State  19:      Singlet-A      6.9175 eV  179.23 nm  f=0.0420  <S**2>=0.000
      69 -> 78         0.33393
      70 -> 78         0.44362
      72 -> 79        -0.29417
      73 -> 79        -0.11435
      74 -> 78         0.10289
      74 -> 79         0.11707
      75 -> 79         0.18370
 
 Excited State  20:      Singlet-A      6.9700 eV  177.88 nm  f=0.0402  <S**2>=0.000
      70 -> 78         0.37428
      72 -> 79         0.31078
      73 -> 79         0.39510
      74 -> 79        -0.14711
      75 -> 79        -0.12260
      76 -> 80        -0.21811
 SavETr:  write IOETrn=   770 NScale= 10 NData=  16 NLR=1 NState=   20 LETran=     370.

 **********************************************************************

            Population analysis using the SCF density.

 **********************************************************************

 Orbital symmetries:
       Occupied  (A) (A) (A) (A) (A) (A) (A) (A) (A) (A) (A) (A)
                 (A) (A) (A) (A) (A) (A) (A) (A) (A) (A) (A) (A)
                 (A) (A) (A) (A) (A) (A) (A) (A) (A) (A) (A) (A)
                 (A) (A) (A) (A) (A) (A) (A) (A) (A) (A) (A) (A)
                 (A) (A) (A) (A) (A) (A) (A) (A) (A) (A) (A) (A)
                 (A) (A) (A) (A) (A) (A) (A) (A) (A) (A) (A) (A)
                 (A) (A) (A) (A)
       Virtual   (A) (A) (A) (A) (A) (A) (A) (A) (A) (A) (A) (A)
                 (A) (A) (A) (A) (A) (A) (A) (A) (A) (A) (A) (A)
                 (A) (A) (A) (A) (A) (A) (A) (A) (A) (A) (A) (A)
                 (A) (A) (A) (A) (A) (A) (A) (A) (A) (A) (A) (A)
                 (A) (A) (A) (A) (A) (A) (A) (A) (A) (A) (A) (A)
                 (A) (A) (A) (A) (A) (A) (A) (A) (A) (A) (A) (A)
                 (A) (A) (A) (A) (A) (A) (A) (A) (A) (A) (A) (A)
                 (A) (A) (A) (A) (A) (A) (A) (A) (A) (A) (A) (A)
                 (A) (A) (A) (A) (A) (A) (A) (A) (A) (A) (A) (A)
                 (A) (A) (A) (A) (A) (A) (A) (A) (A) (A) (A) (A)
                 (A) (A) (A) (A) (A) (A) (A) (A) (A) (A) (A) (A)
                 (A) (A) (A) (A) (A) (A) (A) (A) (A) (A) (A) (A)
                 (A) (A) (A) (A) (A) (A) (A) (A) (A) (A) (A) (A)
                 (A) (A) (A) (A) (A) (A) (A) (A) (A) (A) (A) (A)
                 (A) (A) (A) (A) (A) (A) (A) (A) (A) (A) (A) (A)
                 (A) (A) (A) (A) (A) (A) (A) (A) (A) (A) (A) (A)
                 (A) (A) (A) (A) (A) (A) (A) (A) (A) (A) (A) (A)
                 (A) (A) (A) (A) (A) (A) (A) (A) (A) (A) (A) (A)
                 (A) (A) (A) (A) (A) (A) (A) (A) (A) (A) (A) (A)
                 (A) (A) (A) (A) (A) (A) (A) (A) (A) (A) (A) (A)
                 (A) (A) (A) (A) (A) (A) (A) (A) (A) (A) (A) (A)
                 (A) (A) (A) (A) (A) (A) (A) (A) (A) (A) (A) (A)
                 (A) (A) (A) (A) (A) (A) (A) (A) (A) (A) (A) (A)
                 (A) (A) (A) (A) (A) (A) (A) (A) (A) (A) (A) (A)
                 (A) (A) (A) (A) (A) (A) (A) (A) (A) (A) (A) (A)
                 (A) (A) (A) (A) (A) (A) (A) (A) (A) (A) (A) (A)
                 (A) (A) (A) (A) (A) (A) (A) (A) (A) (A) (A) (A)
                 (A) (A) (A) (A) (A) (A) (A) (A) (A) (A) (A) (A)
                 (A) (A) (A) (A) (A) (A) (A) (A) (A) (A) (A) (A)
                 (A) (A) (A) (A) (A) (A) (A) (A) (A) (A) (A) (A)
                 (A) (A) (A) (A) (A) (A) (A) (A) (A) (A) (A) (A)
                 (A) (A) (A) (A) (A) (A) (A) (A) (A) (A) (A) (A)
                 (A) (A) (A) (A) (A) (A) (A) (A) (A) (A) (A) (A)
                 (A) (A) (A) (A) (A) (A) (A) (A) (A) (A) (A)
 The electronic state is 1-A.
 Alpha  occ. eigenvalues --  -19.27477 -19.26201 -19.26195 -19.24418 -19.19754
 Alpha  occ. eigenvalues --  -19.19359 -10.35918 -10.35862 -10.35680 -10.32189
 Alpha  occ. eigenvalues --  -10.31088 -10.30918 -10.28143 -10.26946 -10.26893
 Alpha  occ. eigenvalues --  -10.26592 -10.25671 -10.25194 -10.24947 -10.24435
 Alpha  occ. eigenvalues --  -10.24002  -1.15487  -1.14229  -1.14106  -1.09203
 Alpha  occ. eigenvalues --   -1.06126  -1.04974  -0.90845  -0.86574  -0.84352
 Alpha  occ. eigenvalues --   -0.80915  -0.78889  -0.76413  -0.75892  -0.71679
 Alpha  occ. eigenvalues --   -0.69379  -0.67089  -0.62658  -0.61489  -0.61073
 Alpha  occ. eigenvalues --   -0.58487  -0.57158  -0.56172  -0.55428  -0.53735
 Alpha  occ. eigenvalues --   -0.52824  -0.51226  -0.50537  -0.49332  -0.48749
 Alpha  occ. eigenvalues --   -0.47724  -0.46990  -0.46686  -0.45884  -0.45159
 Alpha  occ. eigenvalues --   -0.44631  -0.44216  -0.43653  -0.42710  -0.41188
 Alpha  occ. eigenvalues --   -0.40775  -0.40477  -0.39910  -0.39539  -0.38764
 Alpha  occ. eigenvalues --   -0.37901  -0.36915  -0.36185  -0.32633  -0.32389
 Alpha  occ. eigenvalues --   -0.32002  -0.29973  -0.29703  -0.28967  -0.28599
 Alpha  occ. eigenvalues --   -0.26640
 Alpha virt. eigenvalues --   -0.06173  -0.04001  -0.01108   0.02852   0.04287
 Alpha virt. eigenvalues --    0.04841   0.05585   0.06299   0.06553   0.07457
 Alpha virt. eigenvalues --    0.08293   0.08884   0.09320   0.09432   0.10289
 Alpha virt. eigenvalues --    0.10391   0.11091   0.11384   0.11960   0.12149
 Alpha virt. eigenvalues --    0.12693   0.13452   0.13528   0.14293   0.14381
 Alpha virt. eigenvalues --    0.15804   0.16318   0.16852   0.17950   0.18509
 Alpha virt. eigenvalues --    0.18939   0.19419   0.20549   0.21294   0.21440
 Alpha virt. eigenvalues --    0.22023   0.22528   0.22996   0.23768   0.23882
 Alpha virt. eigenvalues --    0.24285   0.25454   0.26135   0.26433   0.26636
 Alpha virt. eigenvalues --    0.27000   0.27889   0.28648   0.29010   0.29398
 Alpha virt. eigenvalues --    0.30566   0.31156   0.31426   0.32110   0.32693
 Alpha virt. eigenvalues --    0.33612   0.33746   0.34395   0.34570   0.34786
 Alpha virt. eigenvalues --    0.35614   0.36032   0.36599   0.37327   0.38221
 Alpha virt. eigenvalues --    0.38332   0.38606   0.39282   0.40209   0.40271
 Alpha virt. eigenvalues --    0.40519   0.40747   0.41315   0.41947   0.42974
 Alpha virt. eigenvalues --    0.43186   0.43471   0.43950   0.44585   0.45214
 Alpha virt. eigenvalues --    0.45395   0.45921   0.46064   0.46519   0.47140
 Alpha virt. eigenvalues --    0.47162   0.48195   0.48470   0.48827   0.49395
 Alpha virt. eigenvalues --    0.49493   0.50232   0.51413   0.51658   0.52603
 Alpha virt. eigenvalues --    0.52786   0.52948   0.53943   0.54383   0.56103
 Alpha virt. eigenvalues --    0.56322   0.57501   0.58376   0.58555   0.59557
 Alpha virt. eigenvalues --    0.60320   0.61484   0.61765   0.62838   0.63255
 Alpha virt. eigenvalues --    0.65262   0.66014   0.66434   0.67203   0.67672
 Alpha virt. eigenvalues --    0.68723   0.69279   0.69914   0.70826   0.71979
 Alpha virt. eigenvalues --    0.72997   0.73656   0.74404   0.76760   0.77404
 Alpha virt. eigenvalues --    0.77725   0.79397   0.80711   0.82467   0.83341
 Alpha virt. eigenvalues --    0.84492   0.84806   0.86530   0.87292   0.91550
 Alpha virt. eigenvalues --    0.93761   0.95471   0.97637   0.98894   1.02130
 Alpha virt. eigenvalues --    1.05840   1.13264   1.16212   1.21783   1.22504
 Alpha virt. eigenvalues --    1.24668   1.25460   1.26471   1.27987   1.28659
 Alpha virt. eigenvalues --    1.29482   1.30070   1.30675   1.30975   1.32039
 Alpha virt. eigenvalues --    1.32216   1.32852   1.33502   1.34064   1.35182
 Alpha virt. eigenvalues --    1.35704   1.36524   1.36760   1.37365   1.38566
 Alpha virt. eigenvalues --    1.39379   1.39768   1.40631   1.41305   1.41622
 Alpha virt. eigenvalues --    1.42064   1.42432   1.43258   1.43904   1.44826
 Alpha virt. eigenvalues --    1.44975   1.45771   1.46252   1.47494   1.47630
 Alpha virt. eigenvalues --    1.48799   1.49621   1.50248   1.50647   1.51361
 Alpha virt. eigenvalues --    1.51566   1.52244   1.52427   1.53258   1.54255
 Alpha virt. eigenvalues --    1.54633   1.55484   1.55762   1.56407   1.56973
 Alpha virt. eigenvalues --    1.57231   1.57652   1.58405   1.58689   1.59697
 Alpha virt. eigenvalues --    1.60408   1.61381   1.62111   1.63234   1.64245
 Alpha virt. eigenvalues --    1.65269   1.65703   1.67718   1.68418   1.68974
 Alpha virt. eigenvalues --    1.70239   1.74679   1.75369   1.75609   1.76199
 Alpha virt. eigenvalues --    1.77605   1.78656   1.78882   1.79166   1.79526
 Alpha virt. eigenvalues --    1.79716   1.79846   1.81817   1.82114   1.82428
 Alpha virt. eigenvalues --    1.83170   1.85004   1.86930   1.88735   1.88930
 Alpha virt. eigenvalues --    1.91391   1.92229   1.93064   1.93420   1.94730
 Alpha virt. eigenvalues --    1.96410   1.98466   1.99798   2.00675   2.01535
 Alpha virt. eigenvalues --    2.01748   2.02877   2.04361   2.05364   2.06329
 Alpha virt. eigenvalues --    2.07152   2.09334   2.10334   2.10819   2.12590
 Alpha virt. eigenvalues --    2.13316   2.14532   2.15204   2.16282   2.17256
 Alpha virt. eigenvalues --    2.17964   2.19279   2.21297   2.23296   2.24868
 Alpha virt. eigenvalues --    2.25573   2.27823   2.28028   2.29438   2.30022
 Alpha virt. eigenvalues --    2.31333   2.33385   2.34367   2.34940   2.36504
 Alpha virt. eigenvalues --    2.37130   2.38809   2.39312   2.40264   2.40545
 Alpha virt. eigenvalues --    2.42162   2.43198   2.44126   2.45899   2.46738
 Alpha virt. eigenvalues --    2.47929   2.48847   2.50199   2.52208   2.54283
 Alpha virt. eigenvalues --    2.54479   2.55429   2.55779   2.58185   2.58798
 Alpha virt. eigenvalues --    2.60274   2.60944   2.62982   2.63390   2.63851
 Alpha virt. eigenvalues --    2.65227   2.65942   2.66314   2.67110   2.69005
 Alpha virt. eigenvalues --    2.69755   2.69900   2.71330   2.71453   2.72830
 Alpha virt. eigenvalues --    2.73510   2.74101   2.74143   2.75207   2.75417
 Alpha virt. eigenvalues --    2.76815   2.77192   2.77861   2.79418   2.80305
 Alpha virt. eigenvalues --    2.80575   2.82296   2.83571   2.84648   2.86494
 Alpha virt. eigenvalues --    2.88405   2.89924   2.90933   2.94362   2.95352
 Alpha virt. eigenvalues --    2.96158   2.97284   2.97468   2.99076   2.99574
 Alpha virt. eigenvalues --    3.00087   3.01180   3.01690   3.02899   3.03377
 Alpha virt. eigenvalues --    3.04446   3.05947   3.08059   3.09281   3.09923
 Alpha virt. eigenvalues --    3.11449   3.13625   3.14156   3.15925   3.17416
 Alpha virt. eigenvalues --    3.18735   3.20887   3.21612   3.22742   3.23924
 Alpha virt. eigenvalues --    3.24781   3.25277   3.26007   3.28117   3.28638
 Alpha virt. eigenvalues --    3.29580   3.31130   3.31567   3.31829   3.32569
 Alpha virt. eigenvalues --    3.33081   3.34110   3.35595   3.37642   3.38874
 Alpha virt. eigenvalues --    3.40055   3.42012   3.43012   3.46071   3.47458
 Alpha virt. eigenvalues --    3.51007   3.53126   3.56521   3.59718   3.61643
 Alpha virt. eigenvalues --    3.63094   3.91372   3.96014   4.01691   4.06466
 Alpha virt. eigenvalues --    4.11192   4.16104   4.17807   4.22849   4.31142
 Alpha virt. eigenvalues --    4.32023  21.73629  21.77433  21.82865  22.03709
 Alpha virt. eigenvalues --   22.07195  22.08873  22.15616  22.16636  22.22845
 Alpha virt. eigenvalues --   22.26047  22.27205  22.30724  22.34831  22.40491
 Alpha virt. eigenvalues --   22.46902  43.64547  43.69091  43.74510  43.75491
 Alpha virt. eigenvalues --   43.88593  43.96623
          Condensed to atoms (all electrons):
               1          2          3          4          5          6
     1  C    5.430549   0.271372  -0.124301  -0.013482   0.206118  -0.036652
     2  O    0.271372   7.757939   0.317555  -0.098599  -0.006596  -0.004039
     3  C   -0.124301   0.317555   5.094633   0.405213  -0.210858   0.013864
     4  C   -0.013482  -0.098599   0.405213   7.190635  -0.498552   0.061608
     5  C    0.206118  -0.006596  -0.210858  -0.498552   6.680102  -0.155912
     6  C   -0.036652  -0.004039   0.013864   0.061608  -0.155912   5.624746
     7  C   -0.000059   0.002639   0.007221   0.009309   0.171560   0.108251
     8  C    0.278492  -0.007888  -0.031340  -0.008878   0.238182   0.060358
     9  C   -0.329075  -0.011763   0.083223   0.227854  -1.033687   0.262186
    10  C   -0.250718   0.022823  -0.001508   0.006147  -0.034702  -0.014788
    11  O    0.204185  -0.082388   0.027103  -0.009207  -0.074706   0.034297
    12  C   -0.002435   0.021829  -0.065289  -0.471173   0.102436  -0.082969
    13  O    0.000574   0.000316  -0.001793  -0.164000   0.012098   0.000116
    14  O   -0.000093  -0.000066   0.003712  -0.243278   0.030259  -0.009463
    15  C   -0.000064   0.000027   0.000151  -0.006854  -0.004798  -0.000033
    16  O   -0.005998  -0.000091   0.000011  -0.001118   0.004535   0.014481
    17  C   -0.000952   0.000184  -0.000008   0.000312  -0.009370   0.003321
    18  C    0.054744  -0.004228   0.002272  -0.003714   0.000165   0.012705
    19  C   -0.001715  -0.000039   0.000207  -0.000389  -0.000861   0.001956
    20  C   -0.000648   0.000005   0.000002   0.000007  -0.000086  -0.000021
    21  O   -0.000047   0.000000   0.000001  -0.000001  -0.000155   0.000050
    22  H    0.005520  -0.026940   0.426173  -0.074383   0.010024   0.000012
    23  H    0.426839  -0.052521   0.014710  -0.008371   0.015034   0.001190
    24  H   -0.021301   0.004762   0.010106  -0.006430  -0.021816   0.005465
    25  H    0.001576   0.000496  -0.003621  -0.059044   0.436147  -0.014688
    26  H    0.015078   0.000049  -0.001029   0.000537   0.004833  -0.004652
    27  H   -0.000482  -0.000087   0.000752   0.007526  -0.055491   0.386975
    28  H    0.001599   0.000043  -0.000062  -0.000474   0.019947  -0.055187
    29  H   -0.000329   0.000001   0.000005  -0.000005   0.000001   0.000011
    30  H   -0.002426   0.000005   0.000012  -0.000016   0.000036   0.000003
    31  H    0.000114  -0.000001  -0.000001   0.000000   0.000005  -0.000001
    32  H    0.000343   0.000006   0.000001   0.000001  -0.000003  -0.000000
    33  H   -0.000010  -0.000000  -0.000125  -0.003051   0.000291  -0.000147
    34  H   -0.000003   0.000000   0.000095   0.003210  -0.000757  -0.000060
    35  H    0.000004  -0.000001   0.000378  -0.003331  -0.000255   0.000040
               7          8          9         10         11         12
     1  C   -0.000059   0.278492  -0.329075  -0.250718   0.204185  -0.002435
     2  O    0.002639  -0.007888  -0.011763   0.022823  -0.082388   0.021829
     3  C    0.007221  -0.031340   0.083223  -0.001508   0.027103  -0.065289
     4  C    0.009309  -0.008878   0.227854   0.006147  -0.009207  -0.471173
     5  C    0.171560   0.238182  -1.033687  -0.034702  -0.074706   0.102436
     6  C    0.108251   0.060358   0.262186  -0.014788   0.034297  -0.082969
     7  C    5.710240   0.113039  -0.232824   0.013495  -0.031268   0.015056
     8  C    0.113039   6.406900  -0.820411  -0.387973  -0.042555  -0.000819
     9  C   -0.232824  -0.820411   7.438764   0.190777   0.069717  -0.025226
    10  C    0.013495  -0.387973   0.190777   6.623122   0.244585   0.002561
    11  O   -0.031268  -0.042555   0.069717   0.244585   7.939606  -0.006858
    12  C    0.015056  -0.000819  -0.025226   0.002561  -0.006858   5.423013
    13  O   -0.000206   0.000059  -0.001244   0.000005   0.000008   0.643139
    14  O   -0.001179   0.000071   0.002085  -0.000019   0.000001   0.368132
    15  C   -0.000029  -0.000006   0.000162   0.000003  -0.000003  -0.049631
    16  O   -0.122761   0.227984  -0.063305   0.005833   0.002396  -0.000018
    17  C    0.003096  -0.098221   0.029734   0.128540   0.001193  -0.000000
    18  C   -0.043402   0.303279  -0.027055  -0.816847  -0.038632  -0.000390
    19  C   -0.012884  -0.014871   0.021570  -0.218344  -0.004708  -0.000013
    20  C    0.000130  -0.002201   0.000765   0.004599  -0.006045  -0.000000
    21  O   -0.000341  -0.004970   0.003065   0.009062  -0.000175  -0.000000
    22  H   -0.000047   0.000023  -0.002083   0.000132   0.000008  -0.010024
    23  H   -0.002576   0.006574  -0.085360  -0.029185  -0.060389  -0.001442
    24  H    0.006777  -0.027831   0.356545  -0.003512   0.008822  -0.003603
    25  H   -0.006402  -0.006020  -0.009735   0.000449  -0.000345  -0.012916
    26  H    0.013130   0.002312  -0.015231   0.346830  -0.036186   0.000240
    27  H   -0.027361   0.008628   0.015124  -0.001006   0.000474  -0.001677
    28  H    0.420657  -0.032987  -0.005049  -0.003363  -0.000761   0.000296
    29  H   -0.000030  -0.001340   0.000295   0.014680  -0.000692  -0.000000
    30  H   -0.000112  -0.000737   0.000890   0.008640   0.006061  -0.000001
    31  H    0.000022   0.000244  -0.000086  -0.002123   0.000283   0.000000
    32  H   -0.000005  -0.000219   0.000002   0.002263   0.000302   0.000000
    33  H   -0.000029  -0.000006   0.000091   0.000000   0.000000  -0.011504
    34  H    0.000062  -0.000011   0.000018   0.000000  -0.000000   0.008924
    35  H    0.000024   0.000001  -0.000022  -0.000000  -0.000000  -0.011983
              13         14         15         16         17         18
     1  C    0.000574  -0.000093  -0.000064  -0.005998  -0.000952   0.054744
     2  O    0.000316  -0.000066   0.000027  -0.000091   0.000184  -0.004228
     3  C   -0.001793   0.003712   0.000151   0.000011  -0.000008   0.002272
     4  C   -0.164000  -0.243278  -0.006854  -0.001118   0.000312  -0.003714
     5  C    0.012098   0.030259  -0.004798   0.004535  -0.009370   0.000165
     6  C    0.000116  -0.009463  -0.000033   0.014481   0.003321   0.012705
     7  C   -0.000206  -0.001179  -0.000029  -0.122761   0.003096  -0.043402
     8  C    0.000059   0.000071  -0.000006   0.227984  -0.098221   0.303279
     9  C   -0.001244   0.002085   0.000162  -0.063305   0.029734  -0.027055
    10  C    0.000005  -0.000019   0.000003   0.005833   0.128540  -0.816847
    11  O    0.000008   0.000001  -0.000003   0.002396   0.001193  -0.038632
    12  C    0.643139   0.368132  -0.049631  -0.000018  -0.000000  -0.000390
    13  O    7.898580  -0.107609   0.013014  -0.000000  -0.000000  -0.000000
    14  O   -0.107609   8.040155   0.193209   0.000000   0.000000  -0.000000
    15  C    0.013014   0.193209   4.838508  -0.000000   0.000000  -0.000000
    16  O   -0.000000   0.000000  -0.000000   7.961194   0.313549  -0.196295
    17  C   -0.000000   0.000000   0.000000   0.313549   4.951699  -0.017760
    18  C   -0.000000  -0.000000  -0.000000  -0.196295  -0.017760   6.791725
    19  C    0.000000   0.000000  -0.000000   0.015526  -0.128302   0.387589
    20  C   -0.000000  -0.000000   0.000000  -0.000416   0.013473  -0.018100
    21  O   -0.000000   0.000000  -0.000000  -0.082652   0.673651  -0.136015
    22  H    0.016734   0.001478  -0.000178  -0.000000   0.000001  -0.000005
    23  H    0.000001  -0.000002  -0.000001   0.000593  -0.004432   0.021748
    24  H    0.000004   0.000030  -0.000010   0.008701   0.000176   0.001252
    25  H   -0.000012   0.003307  -0.000145   0.000284   0.000124  -0.000120
    26  H    0.000000   0.000000   0.000000   0.003060   0.007788  -0.040663
    27  H    0.000200   0.009437  -0.000159  -0.000082   0.000044   0.000173
    28  H   -0.000000  -0.000030   0.000000  -0.001563  -0.000869  -0.001595
    29  H    0.000000   0.000000  -0.000000   0.001838  -0.015032   0.000434
    30  H    0.000000   0.000000  -0.000000  -0.000013   0.000117   0.015952
    31  H   -0.000000   0.000000   0.000000   0.000003  -0.000539  -0.007227
    32  H    0.000000   0.000000   0.000000   0.000017   0.000029  -0.007707
    33  H    0.004868  -0.033126   0.417892   0.000000   0.000000   0.000000
    34  H    0.002319  -0.034473   0.388151  -0.000000  -0.000000  -0.000000
    35  H    0.004188  -0.031514   0.416979   0.000000  -0.000000   0.000000
              19         20         21         22         23         24
     1  C   -0.001715  -0.000648  -0.000047   0.005520   0.426839  -0.021301
     2  O   -0.000039   0.000005   0.000000  -0.026940  -0.052521   0.004762
     3  C    0.000207   0.000002   0.000001   0.426173   0.014710   0.010106
     4  C   -0.000389   0.000007  -0.000001  -0.074383  -0.008371  -0.006430
     5  C   -0.000861  -0.000086  -0.000155   0.010024   0.015034  -0.021816
     6  C    0.001956  -0.000021   0.000050   0.000012   0.001190   0.005465
     7  C   -0.012884   0.000130  -0.000341  -0.000047  -0.002576   0.006777
     8  C   -0.014871  -0.002201  -0.004970   0.000023   0.006574  -0.027831
     9  C    0.021570   0.000765   0.003065  -0.002083  -0.085360   0.356545
    10  C   -0.218344   0.004599   0.009062   0.000132  -0.029185  -0.003512
    11  O   -0.004708  -0.006045  -0.000175   0.000008  -0.060389   0.008822
    12  C   -0.000013  -0.000000  -0.000000  -0.010024  -0.001442  -0.003603
    13  O    0.000000  -0.000000  -0.000000   0.016734   0.000001   0.000004
    14  O    0.000000  -0.000000   0.000000   0.001478  -0.000002   0.000030
    15  C   -0.000000   0.000000  -0.000000  -0.000178  -0.000001  -0.000010
    16  O    0.015526  -0.000416  -0.082652  -0.000000   0.000593   0.008701
    17  C   -0.128302   0.013473   0.673651   0.000001  -0.004432   0.000176
    18  C    0.387589  -0.018100  -0.136015  -0.000005   0.021748   0.001252
    19  C    5.484476   0.219621   0.007034   0.000000   0.008695  -0.001016
    20  C    0.219621   5.010189   0.000722  -0.000000  -0.000069   0.000034
    21  O    0.007034   0.000722   7.792901   0.000000  -0.000001  -0.000277
    22  H    0.000000  -0.000000   0.000000   0.493848  -0.000404   0.000090
    23  H    0.008695  -0.000069  -0.000001  -0.000404   0.624204  -0.002344
    24  H   -0.001016   0.000034  -0.000277   0.000090  -0.002344   0.494639
    25  H    0.000000   0.000000   0.000000  -0.000107  -0.000157  -0.001942
    26  H   -0.011940   0.001645  -0.000131  -0.000000  -0.001312  -0.000790
    27  H    0.000004  -0.000000  -0.000000  -0.000027   0.000033  -0.000220
    28  H   -0.000083  -0.000002  -0.000024  -0.000002   0.000006  -0.000608
    29  H    0.353998  -0.039647   0.017797   0.000000   0.000176   0.000024
    30  H   -0.075770   0.427957  -0.000003  -0.000000   0.000333  -0.000030
    31  H   -0.025668   0.396875   0.000043   0.000000  -0.000019  -0.000001
    32  H   -0.020659   0.391009   0.000043   0.000000  -0.000218  -0.000001
    33  H    0.000000   0.000000   0.000000  -0.000014  -0.000000   0.000000
    34  H   -0.000000   0.000000   0.000000  -0.000003  -0.000000  -0.000000
    35  H   -0.000000   0.000000  -0.000000  -0.000026   0.000000  -0.000001
              25         26         27         28         29         30
     1  C    0.001576   0.015078  -0.000482   0.001599  -0.000329  -0.002426
     2  O    0.000496   0.000049  -0.000087   0.000043   0.000001   0.000005
     3  C   -0.003621  -0.001029   0.000752  -0.000062   0.000005   0.000012
     4  C   -0.059044   0.000537   0.007526  -0.000474  -0.000005  -0.000016
     5  C    0.436147   0.004833  -0.055491   0.019947   0.000001   0.000036
     6  C   -0.014688  -0.004652   0.386975  -0.055187   0.000011   0.000003
     7  C   -0.006402   0.013130  -0.027361   0.420657  -0.000030  -0.000112
     8  C   -0.006020   0.002312   0.008628  -0.032987  -0.001340  -0.000737
     9  C   -0.009735  -0.015231   0.015124  -0.005049   0.000295   0.000890
    10  C    0.000449   0.346830  -0.001006  -0.003363   0.014680   0.008640
    11  O   -0.000345  -0.036186   0.000474  -0.000761  -0.000692   0.006061
    12  C   -0.012916   0.000240  -0.001677   0.000296  -0.000000  -0.000001
    13  O   -0.000012   0.000000   0.000200  -0.000000   0.000000   0.000000
    14  O    0.003307   0.000000   0.009437  -0.000030   0.000000   0.000000
    15  C   -0.000145   0.000000  -0.000159   0.000000  -0.000000  -0.000000
    16  O    0.000284   0.003060  -0.000082  -0.001563   0.001838  -0.000013
    17  C    0.000124   0.007788   0.000044  -0.000869  -0.015032   0.000117
    18  C   -0.000120  -0.040663   0.000173  -0.001595   0.000434   0.015952
    19  C    0.000000  -0.011940   0.000004  -0.000083   0.353998  -0.075770
    20  C    0.000000   0.001645  -0.000000  -0.000002  -0.039647   0.427957
    21  O    0.000000  -0.000131  -0.000000  -0.000024   0.017797  -0.000003
    22  H   -0.000107  -0.000000  -0.000027  -0.000002   0.000000  -0.000000
    23  H   -0.000157  -0.001312   0.000033   0.000006   0.000176   0.000333
    24  H   -0.001942  -0.000790  -0.000220  -0.000608   0.000024  -0.000030
    25  H    0.499120   0.000063   0.001849  -0.000309   0.000000   0.000000
    26  H    0.000063   0.541644  -0.000221   0.001820  -0.000615  -0.000974
    27  H    0.001849  -0.000221   0.501022  -0.004077   0.000000   0.000000
    28  H   -0.000309   0.001820  -0.004077   0.536592   0.000000   0.000006
    29  H    0.000000  -0.000615   0.000000   0.000000   0.503708   0.002383
    30  H    0.000000  -0.000974   0.000000   0.000006   0.002383   0.482479
    31  H   -0.000000   0.000294  -0.000000  -0.000000  -0.000566  -0.019067
    32  H    0.000000  -0.000062   0.000000   0.000000   0.000599  -0.017668
    33  H    0.000048  -0.000000   0.000052   0.000001   0.000000  -0.000000
    34  H   -0.000009   0.000000  -0.000398   0.000002  -0.000000  -0.000000
    35  H    0.000007   0.000000   0.000117  -0.000000  -0.000000   0.000000
              31         32         33         34         35
     1  C    0.000114   0.000343  -0.000010  -0.000003   0.000004
     2  O   -0.000001   0.000006  -0.000000   0.000000  -0.000001
     3  C   -0.000001   0.000001  -0.000125   0.000095   0.000378
     4  C    0.000000   0.000001  -0.003051   0.003210  -0.003331
     5  C    0.000005  -0.000003   0.000291  -0.000757  -0.000255
     6  C   -0.000001  -0.000000  -0.000147  -0.000060   0.000040
     7  C    0.000022  -0.000005  -0.000029   0.000062   0.000024
     8  C    0.000244  -0.000219  -0.000006  -0.000011   0.000001
     9  C   -0.000086   0.000002   0.000091   0.000018  -0.000022
    10  C   -0.002123   0.002263   0.000000   0.000000  -0.000000
    11  O    0.000283   0.000302   0.000000  -0.000000  -0.000000
    12  C    0.000000   0.000000  -0.011504   0.008924  -0.011983
    13  O   -0.000000   0.000000   0.004868   0.002319   0.004188
    14  O    0.000000   0.000000  -0.033126  -0.034473  -0.031514
    15  C    0.000000   0.000000   0.417892   0.388151   0.416979
    16  O    0.000003   0.000017   0.000000  -0.000000   0.000000
    17  C   -0.000539   0.000029   0.000000  -0.000000  -0.000000
    18  C   -0.007227  -0.007707   0.000000  -0.000000   0.000000
    19  C   -0.025668  -0.020659   0.000000  -0.000000  -0.000000
    20  C    0.396875   0.391009   0.000000   0.000000   0.000000
    21  O    0.000043   0.000043   0.000000   0.000000  -0.000000
    22  H    0.000000   0.000000  -0.000014  -0.000003  -0.000026
    23  H   -0.000019  -0.000218  -0.000000  -0.000000   0.000000
    24  H   -0.000001  -0.000001   0.000000  -0.000000  -0.000001
    25  H   -0.000000   0.000000   0.000048  -0.000009   0.000007
    26  H    0.000294  -0.000062  -0.000000   0.000000   0.000000
    27  H   -0.000000   0.000000   0.000052  -0.000398   0.000117
    28  H   -0.000000   0.000000   0.000001   0.000002  -0.000000
    29  H   -0.000566   0.000599   0.000000  -0.000000  -0.000000
    30  H   -0.019067  -0.017668  -0.000000  -0.000000   0.000000
    31  H    0.544803  -0.030034  -0.000000   0.000000   0.000000
    32  H   -0.030034   0.540163  -0.000000   0.000000  -0.000000
    33  H   -0.000000  -0.000000   0.548445  -0.027435  -0.034944
    34  H    0.000000   0.000000  -0.027435   0.550632  -0.025848
    35  H    0.000000  -0.000000  -0.034944  -0.025848   0.547215
 Mulliken charges:
               1
     1  C   -0.106319
     2  O   -0.104803
     3  C    0.032536
     4  C   -0.238009
     5  C    0.176833
     6  C   -0.213022
     7  C   -0.113194
     8  C   -0.156864
     9  C   -0.040713
    10  C    0.139541
    11  O   -0.144123
    12  C    0.172348
    13  O   -0.321359
    14  O   -0.191023
    15  C   -0.206185
    16  O   -0.085693
    17  C    0.148455
    18  C   -0.232281
    19  C    0.016584
    20  C   -0.399800
    21  O   -0.279578
    22  H    0.160199
    23  H    0.128666
    24  H    0.194307
    25  H    0.172103
    26  H    0.174481
    27  H    0.158877
    28  H    0.126078
    29  H    0.162306
    30  H    0.171941
    31  H    0.142646
    32  H    0.141799
    33  H    0.138706
    34  H    0.135586
    35  H    0.138974
 Sum of Mulliken charges =  -0.00000
 Mulliken charges with hydrogens summed into heavy atoms:
               1
     1  C    0.022347
     2  O   -0.104803
     3  C    0.192735
     4  C   -0.238009
     5  C    0.348936
     6  C   -0.054145
     7  C    0.012883
     8  C   -0.156864
     9  C    0.153595
    10  C    0.314022
    11  O   -0.144123
    12  C    0.172348
    13  O   -0.321359
    14  O   -0.191023
    15  C    0.207080
    16  O   -0.085693
    17  C    0.148455
    18  C   -0.232281
    19  C    0.178890
    20  C    0.056586
    21  O   -0.279578
 Electronic spatial extent (au):  <R**2>=           6513.3908
 Charge=             -0.0000 electrons
 Dipole moment (field-independent basis, Debye):
    X=              0.8542    Y=              0.5278    Z=              1.4112  Tot=              1.7319
 Quadrupole moment (field-independent basis, Debye-Ang):
   XX=           -121.3123   YY=           -129.0688   ZZ=           -116.5697
   XY=            -27.6579   XZ=             -8.2385   YZ=             -6.5003
 Traceless Quadrupole moment (field-independent basis, Debye-Ang):
   XX=              1.0046   YY=             -6.7519   ZZ=              5.7472
   XY=            -27.6579   XZ=             -8.2385   YZ=             -6.5003
 Octapole moment (field-independent basis, Debye-Ang**2):
  XXX=             60.7116  YYY=             18.3086  ZZZ=             -0.7228  XYY=             18.8902
  XXY=             16.1567  XXZ=             37.1516  XZZ=              6.3439  YZZ=             -1.6708
  YYZ=             12.3101  XYZ=              6.1972
 Hexadecapole moment (field-independent basis, Debye-Ang**3):
 XXXX=          -6222.0475 YYYY=          -1499.6994 ZZZZ=           -458.1533 XXXY=           -654.8097
 XXXZ=           -112.5743 YYYX=            -70.0308 YYYZ=            -28.1058 ZZZX=              6.8064
 ZZZY=              0.8485 XXYY=          -1409.7395 XXZZ=          -1153.3206 YYZZ=           -320.5620
 XXYZ=            -76.4049 YYXZ=            -35.7278 ZZXY=            -16.4214
 N-N= 1.736328234657D+03 E-N=-5.882208197924D+03  KE= 1.025685288298D+03
 1\1\ WCSS.PL-BEM-C2\SP\RPBE1PBE TD-FC\TZVP\C15H14O6\LT\30-Mar-2017\0\\
 # PBE1PBE/TZVP TD(nstates=20)\\Plumericin conformation 1d: ECD\\0,1\C,
 0,-0.510365,1.145399,-0.791376\O,0,0.50772,2.114699,-0.92228\C,0,1.759
 817,1.793818,-0.533431\C,0,2.231464,0.555895,-0.30318\C,0,1.372869,-0.
 67674,-0.492465\C,0,1.213936,-1.555267,0.735493\C,0,-0.059003,-1.78660
 8,1.051717\C,0,-1.00669,-1.041479,0.163452\C,0,-0.098086,-0.339986,-0.
 891778\C,0,-1.788667,0.129346,0.836332\O,0,-1.088391,1.319724,0.495665
 \C,0,3.669167,0.466048,0.026567\O,0,4.416889,1.407031,0.219241\O,0,4.0
 89231,-0.826898,0.079447\C,0,5.484635,-1.002731,0.37032\O,0,-1.996373,
 -1.913379,-0.425276\C,0,-3.243792,-1.337141,-0.436589\C,0,-3.175541,-0
 .026501,0.262546\C,0,-4.226696,0.80236,0.310438\C,0,-4.271749,2.143566
 ,0.970144\O,0,-4.190883,-1.875668,-0.95337\H,0,2.397736,2.668158,-0.46
 7413\H,0,-1.236385,1.410887,-1.56807\H,0,-0.322309,-0.721187,-1.889757
 \H,0,1.838335,-1.278408,-1.286109\H,0,-1.782224,0.071428,1.929264\H,0,
 2.077544,-1.951876,1.256955\H,0,-0.416933,-2.404768,1.869404\H,0,-5.13
 4569,0.459104,-0.186854\H,0,-3.309202,2.431661,1.397681\H,0,-5.035417,
 2.152932,1.759752\H,0,-4.570552,2.913025,0.245947\H,0,5.73267,-0.56905
 4,1.342666\H,0,5.648163,-2.080951,0.376573\H,0,6.099809,-0.524891,-0.3
 96599\\Version=ES64L-G09RevE.01\State=1-A\HF=-1030.52861\RMSD=3.068e-0
 9\PG=C01 [X(C15H14O6)]\\@


     SCHOPENHAUER'S LAW OF ENTROPY
 IF YOU PUT A SPOONFUL OF WINE IN A BARREL FULL
 OF SEWAGE, YOU GET SEWAGE.
 IF YOU PUT A SPOONFUL OF SEWAGE IN A BARREL FULL
 OF WINE, YOU GET SEWAGE.
 Job cpu time:       0 days  3 hours 28 minutes 46.4 seconds.
 File lengths (MBytes):  RWF=   1004 Int=      0 D2E=      0 Chk=    159 Scr=      1
 Normal termination of Gaussian 09 at Thu Mar 30 14:49:57 2017.
