 Entering Gaussian System, Link 0=g09
 Initial command:
 /sob/g09/l1.exe "/sob/g09/scratch/Gau-20874.inp" -scrdir="/sob/g09/scratch/"
 Default is to use a total of   4 processors:
                                4 via shared-memory
                                1 via Linda
 Entering Link 1 = /sob/g09/l1.exe PID=     20876.
  
 Copyright (c) 1988,1990,1992,1993,1995,1998,2003,2009,2013,
            Gaussian, Inc.  All Rights Reserved.
  
 This is part of the Gaussian(R) 09 program.  It is based on
 the Gaussian(R) 03 system (copyright 2003, Gaussian, Inc.),
 the Gaussian(R) 98 system (copyright 1998, Gaussian, Inc.),
 the Gaussian(R) 94 system (copyright 1995, Gaussian, Inc.),
 the Gaussian 92(TM) system (copyright 1992, Gaussian, Inc.),
 the Gaussian 90(TM) system (copyright 1990, Gaussian, Inc.),
 the Gaussian 88(TM) system (copyright 1988, Gaussian, Inc.),
 the Gaussian 86(TM) system (copyright 1986, Carnegie Mellon
 University), and the Gaussian 82(TM) system (copyright 1983,
 Carnegie Mellon University). Gaussian is a federally registered
 trademark of Gaussian, Inc.
  
 This software contains proprietary and confidential information,
 including trade secrets, belonging to Gaussian, Inc.
  
 This software is provided under written license and may be
 used, copied, transmitted, or stored only in accord with that
 written license.
  
 The following legend is applicable only to US Government
 contracts under FAR:
  
                    RESTRICTED RIGHTS LEGEND
  
 Use, reproduction and disclosure by the US Government is
 subject to restrictions as set forth in subparagraphs (a)
 and (c) of the Commercial Computer Software - Restricted
 Rights clause in FAR 52.227-19.
  
 Gaussian, Inc.
 340 Quinnipiac St., Bldg. 40, Wallingford CT 06492
  
  
 ---------------------------------------------------------------
 Warning -- This program may not be used in any manner that
 competes with the business of Gaussian, Inc. or will provide
 assistance to any competitor of Gaussian, Inc.  The licensee
 of this program is prohibited from giving any competitor of
 Gaussian, Inc. access to this program.  By using this program,
 the user acknowledges that Gaussian, Inc. is engaged in the
 business of creating and licensing software in the field of
 computational chemistry and represents and warrants to the
 licensee that it is not a competitor of Gaussian, Inc. and that
 it will not use this program in any manner prohibited above.
 ---------------------------------------------------------------
  

 Cite this work as:
 Gaussian 09, Revision D.01,
 M. J. Frisch, G. W. Trucks, H. B. Schlegel, G. E. Scuseria, 
 M. A. Robb, J. R. Cheeseman, G. Scalmani, V. Barone, B. Mennucci, 
 G. A. Petersson, H. Nakatsuji, M. Caricato, X. Li, H. P. Hratchian, 
 A. F. Izmaylov, J. Bloino, G. Zheng, J. L. Sonnenberg, M. Hada, 
 M. Ehara, K. Toyota, R. Fukuda, J. Hasegawa, M. Ishida, T. Nakajima, 
 Y. Honda, O. Kitao, H. Nakai, T. Vreven, J. A. Montgomery, Jr., 
 J. E. Peralta, F. Ogliaro, M. Bearpark, J. J. Heyd, E. Brothers, 
 K. N. Kudin, V. N. Staroverov, T. Keith, R. Kobayashi, J. Normand, 
 K. Raghavachari, A. Rendell, J. C. Burant, S. S. Iyengar, J. Tomasi, 
 M. Cossi, N. Rega, J. M. Millam, M. Klene, J. E. Knox, J. B. Cross, 
 V. Bakken, C. Adamo, J. Jaramillo, R. Gomperts, R. E. Stratmann, 
 O. Yazyev, A. J. Austin, R. Cammi, C. Pomelli, J. W. Ochterski, 
 R. L. Martin, K. Morokuma, V. G. Zakrzewski, G. A. Voth, 
 P. Salvador, J. J. Dannenberg, S. Dapprich, A. D. Daniels, 
 O. Farkas, J. B. Foresman, J. V. Ortiz, J. Cioslowski, 
 and D. J. Fox, Gaussian, Inc., Wallingford CT, 2013.
 
 ******************************************
 Gaussian 09:  ES64L-G09RevD.01 24-Apr-2013
                 3-Sep-2017 
 ******************************************
 %chk=Li5+.chk
 ------------------------------
 # b3lyp/6-311g(d) pop=nbo6read
 ------------------------------
 1/38=1,163=2/1;
 2/12=2,17=6,18=5,40=1/2;
 3/5=4,6=6,7=1,11=2,16=1,25=1,30=1,74=-5/1,2,3;
 4//1;
 5/5=2,38=5/2;
 6/7=2,8=2,9=2,10=2,28=1,40=2,113=1,114=1,124=2103/1,12;
 99/5=1,9=1/99;
 --------------------
 b3lyp/6-311+G* opted
 --------------------
 Symbolic Z-matrix:
 Charge =  1 Multiplicity = 1
 Li                    0.        1.55361   0. 
 Li                   -1.34547  -0.77681   0. 
 Li                    1.34547  -0.77681   0. 
 Li                    0.        0.        2.738 
 Li                    0.        0.       -2.738 
 
                          Input orientation:                          
 ---------------------------------------------------------------------
 Center     Atomic      Atomic             Coordinates (Angstroms)
 Number     Number       Type             X           Y           Z
 ---------------------------------------------------------------------
      1          3           0        0.000000    1.553614    0.000000
      2          3           0       -1.345469   -0.776807    0.000000
      3          3           0        1.345469   -0.776807    0.000000
      4          3           0        0.000000    0.000000    2.737999
      5          3           0        0.000000    0.000000   -2.737999
 ---------------------------------------------------------------------
                    Distance matrix (angstroms):
                    1          2          3          4          5
     1  Li   0.000000
     2  Li   2.690938   0.000000
     3  Li   2.690938   2.690938   0.000000
     4  Li   3.148072   3.148072   3.148072   0.000000
     5  Li   3.148072   3.148072   3.148072   5.475998   0.000000
 Stoichiometry    Li5(1+)
 Framework group  D3H[C3(Li.Li),3C2(Li)]
 Deg. of freedom     2
 Full point group                 D3H     NOp  12
 Largest Abelian subgroup         C2V     NOp   4
 Largest concise Abelian subgroup C2V     NOp   4
                         Standard orientation:                         
 ---------------------------------------------------------------------
 Center     Atomic      Atomic             Coordinates (Angstroms)
 Number     Number       Type             X           Y           Z
 ---------------------------------------------------------------------
      1          3           0        0.000000    1.553614    0.000000
      2          3           0       -1.345469   -0.776807    0.000000
      3          3           0        1.345469   -0.776807    0.000000
      4          3           0        0.000000    0.000000    2.737999
      5          3           0        0.000000    0.000000   -2.737999
 ---------------------------------------------------------------------
 Rotational constants (GHZ):      9.9476347      3.8698229      3.8698229
 Standard basis: 6-311G(d) (5D, 7F)
 There are    38 symmetry adapted cartesian basis functions of A1  symmetry.
 There are    11 symmetry adapted cartesian basis functions of A2  symmetry.
 There are    23 symmetry adapted cartesian basis functions of B1  symmetry.
 There are    23 symmetry adapted cartesian basis functions of B2  symmetry.
 There are    35 symmetry adapted basis functions of A1  symmetry.
 There are    11 symmetry adapted basis functions of A2  symmetry.
 There are    22 symmetry adapted basis functions of B1  symmetry.
 There are    22 symmetry adapted basis functions of B2  symmetry.
    90 basis functions,   160 primitive gaussians,    95 cartesian basis functions
     7 alpha electrons        7 beta electrons
       nuclear repulsion energy        15.2564798625 Hartrees.
 NAtoms=    5 NActive=    5 NUniq=    2 SFac= 4.00D+00 NAtFMM=   60 NAOKFM=F Big=F
 Integral buffers will be    131072 words long.
 Raffenetti 2 integral format.
 Two-electron integral symmetry is turned on.
 One-electron integrals computed using PRISM.
 NBasis=    90 RedAO= T EigKep=  4.93D-04  NBF=    35    11    22    22
 NBsUse=    90 1.00D-06 EigRej= -1.00D+00 NBFU=    35    11    22    22
 ExpMin= 2.44D-02 ExpMax= 9.00D+02 ExpMxC= 1.34D+02 IAcc=3 IRadAn=         5 AccDes= 0.00D+00
 Harris functional with IExCor=  402 and IRadAn=       5 diagonalized for initial guess.
 HarFok:  IExCor=  402 AccDes= 0.00D+00 IRadAn=         5 IDoV= 1 UseB2=F ITyADJ=14
 ICtDFT=  3500011 ScaDFX=  1.000000  1.000000  1.000000  1.000000
 FoFCou: FMM=F IPFlag=           0 FMFlag=      100000 FMFlg1=           0
         NFxFlg=           0 DoJE=T BraDBF=F KetDBF=T FulRan=T
         wScrn=  0.000000 ICntrl=     500 IOpCl=  0 I1Cent=   200000004 NGrid=           0
         NMat0=    1 NMatS0=      1 NMatT0=    0 NMatD0=    1 NMtDS0=    0 NMtDT0=    0
 Petite list used in FoFCou.
 Initial guess orbital symmetries:
       Occupied  (A1') (E') (E') (A2") (A1') (A1') (A2")
       Virtual   (E') (E') (A1') (E") (E") (A2") (A1') (E') (E')
                 (E') (E') (E') (E') (A1') (A2") (E") (E") (A2')
                 (A1') (A2") (E') (E') (E") (E") (A1') (E') (E')
                 (A1') (E") (E") (A1') (A2') (E') (E') (A2") (A2")
                 (E') (E') (A2") (A1') (E") (E") (E') (E') (A1')
                 (A2") (E') (E') (E") (E") (A2') (E") (E") (E')
                 (E') (E') (E') (E') (E') (E") (E") (A1') (A1")
                 (A1') (A2") (E") (E") (E') (E') (A1') (E') (E')
                 (A2") (E') (E') (E") (E") (A2') (A1') (A2") (A1')
                 (E') (E')
 The electronic state of the initial guess is 1-A1'.
 Keep R1 ints in memory in symmetry-blocked form, NReq=10570459.
 Requested convergence on RMS density matrix=1.00D-08 within 128 cycles.
 Requested convergence on MAX density matrix=1.00D-06.
 Requested convergence on             energy=1.00D-06.
 No special actions if energy rises.
 SCF Done:  E(RB3LYP) =  -37.4288560260     A.U. after    8 cycles
            NFock=  8  Conv=0.64D-08     -V/T= 2.0096

 **********************************************************************

            Population analysis using the SCF density.

 **********************************************************************

 Orbital symmetries:
       Occupied  (A1') (E') (E') (A2") (A1') (A1') (A2")
       Virtual   (E') (E') (A1') (E") (E") (A2") (A1') (E') (E')
                 (E') (E') (E') (E') (A2") (A1') (E") (E") (A2')
                 (A1') (A2") (E") (E") (E') (E') (A1') (A1') (E')
                 (E') (E") (E") (A1') (A2') (E') (E') (A2") (A2")
                 (E') (E') (A2") (E") (E") (A1') (E') (E') (A1')
                 (A2") (E') (E') (E") (E") (A2') (E') (E') (E")
                 (E") (E') (E') (E') (E') (E") (E") (A1') (A1")
                 (A1') (A2") (E") (E") (E') (E') (A1') (E') (E')
                 (A2") (E") (E") (E') (E') (A2') (A1') (A2") (A1')
                 (E') (E')
 The electronic state is 1-A1'.
 Alpha  occ. eigenvalues --   -2.13940  -2.13879  -2.13879  -2.12850  -2.12849
 Alpha  occ. eigenvalues --   -0.32032  -0.26012
 Alpha virt. eigenvalues --   -0.19398  -0.19398  -0.16264  -0.14815  -0.14815
 Alpha virt. eigenvalues --   -0.13375  -0.13284  -0.11952  -0.11952  -0.08217
 Alpha virt. eigenvalues --   -0.08217  -0.06277  -0.06277  -0.05432  -0.05293
 Alpha virt. eigenvalues --   -0.04689  -0.04689  -0.04240  -0.03727  -0.03236
 Alpha virt. eigenvalues --   -0.02496  -0.02496  -0.02465  -0.02465  -0.01059
 Alpha virt. eigenvalues --   -0.00263   0.00276   0.00276   0.03093   0.03093
 Alpha virt. eigenvalues --    0.03565   0.03608   0.03811   0.03811   0.04785
 Alpha virt. eigenvalues --    0.07412   0.08610   0.08610   0.21139   0.21979
 Alpha virt. eigenvalues --    0.21979   0.22858   0.26873   0.26873   0.27048
 Alpha virt. eigenvalues --    0.28937   0.29314   0.29314   0.29890   0.29890
 Alpha virt. eigenvalues --    0.31792   0.31927   0.31927   0.32494   0.32494
 Alpha virt. eigenvalues --    0.33018   0.33018   0.38271   0.38271   0.39387
 Alpha virt. eigenvalues --    0.39387   0.40906   0.44514   0.47050   0.47602
 Alpha virt. eigenvalues --    0.48917   0.48917   0.53233   0.53233   0.56147
 Alpha virt. eigenvalues --    0.60038   0.60038   0.61696   0.69381   0.69381
 Alpha virt. eigenvalues --    0.70271   0.70271   0.73524   3.41496   3.54592
 Alpha virt. eigenvalues --    3.65371   3.67209   3.67209
          Condensed to atoms (all electrons):
               1          2          3          4          5
     1  Li   2.241355   0.097649   0.097649   0.136671   0.136671
     2  Li   0.097649   2.241355   0.097649   0.136671   0.136671
     3  Li   0.097649   0.097649   2.241355   0.136671   0.136671
     4  Li   0.136671   0.136671   0.136671   2.583524  -0.058528
     5  Li   0.136671   0.136671   0.136671  -0.058528   2.583524
 Mulliken charges:
               1
     1  Li   0.290006
     2  Li   0.290006
     3  Li   0.290006
     4  Li   0.064991
     5  Li   0.064991
 Sum of Mulliken charges =   1.00000
 Mulliken charges with hydrogens summed into heavy atoms:
               1
     1  Li   0.290006
     2  Li   0.290006
     3  Li   0.290006
     4  Li   0.064991
     5  Li   0.064991
 Electronic spatial extent (au):  <R**2>=            246.2069
 Charge=              1.0000 electrons
 Dipole moment (field-independent basis, Debye):
    X=              0.0000    Y=              0.0000    Z=              0.0000  Tot=              0.0000
 Quadrupole moment (field-independent basis, Debye-Ang):
   XX=             -9.9671   YY=             -9.9671   ZZ=              9.1669
   XY=              0.0000   XZ=              0.0000   YZ=              0.0000
 Traceless Quadrupole moment (field-independent basis, Debye-Ang):
   XX=             -6.3780   YY=             -6.3780   ZZ=             12.7560
   XY=              0.0000   XZ=              0.0000   YZ=              0.0000
 Octapole moment (field-independent basis, Debye-Ang**2):
  XXX=              0.0000  YYY=             12.4749  ZZZ=              0.0000  XYY=              0.0000
  XXY=            -12.4749  XXZ=              0.0000  XZZ=              0.0000  YZZ=              0.0000
  YYZ=              0.0000  XYZ=              0.0000
 Hexadecapole moment (field-independent basis, Debye-Ang**3):
 XXXX=            -83.7900 YYYY=            -83.7900 ZZZZ=             30.6027 XXXY=              0.0000
 XXXZ=              0.0000 YYYX=              0.0000 YYYZ=              0.0000 ZZZX=              0.0000
 ZZZY=              0.0000 XXYY=            -27.9300 XXZZ=            -99.7034 YYZZ=            -99.7034
 XXYZ=              0.0000 YYXZ=              0.0000 ZZXY=              0.0000
 N-N= 1.525647986248D+01 E-N=-1.145537799685D+02  KE= 3.707412223778D+01
 Symmetry A1   KE= 2.219122901804D+01
 Symmetry A2   KE=-1.249958342836D-19
 Symmetry B1   KE= 7.181952181377D+00
 Symmetry B2   KE= 7.700941038360D+00
 Running external command "gaunbo6 R"
         input file       "/sob/g09/scratch/Gau-20876.EIn"
         output file      "/sob/g09/scratch/Gau-20876.EOu"
         message file     "/sob/g09/scratch/Gau-20876.EMs"
         fchk file        "/sob/g09/scratch/Gau-20876.EFC"
         mat. el file     "/sob/g09/scratch/Gau-20876.EUF"

 Writing Wrt12E file "/sob/g09/scratch/Gau-20876.EUF"
 Gaussian matrix elements                                         Version   1 NLab= 7 Len12L=8 Len4L=8
 Write GAUSSIAN SCALARS               from file   501 offset           0 to matrix element file.
 Write OVERLAP                        from file   514 offset           0 to matrix element file.
 Write CORE HAMILTONIAN ALPHA         from file   515 offset           0 to matrix element file.
 Write CORE HAMILTONIAN BETA          from file   515 offset        4095 to matrix element file.
 Write KINETIC ENERGY                 from file   516 offset           0 to matrix element file.
 Write ORTHOGONAL BASIS               from file   685 offset           0 to matrix element file.
 Write DIPOLE INTEGRALS               from file   518 offset           0 to matrix element file.
 Array DIP VEL INTEGRALS               on  file    572 does not exist.
 Array R X DEL INTEGRALS               on  file    572 does not exist.
 Write ALPHA ORBITAL ENERGIES         from file     0 offset           0 to matrix element file.
 Write ALPHA MO COEFFICIENTS          from file 10524 offset           0 to matrix element file.
 Write ALPHA DENSITY MATRIX           from file     0 offset           0 to matrix element file.
 Write ALPHA SCF DENSITY MATRIX       from file 10528 offset           0 to matrix element file.
 Write ALPHA FOCK MATRIX              from file 10536 offset           0 to matrix element file.
 No 2e integrals to process.
 Perform NBO analysis...

 *********************************** NBO 6.0 ***********************************
             N A T U R A L   A T O M I C   O R B I T A L   A N D
          N A T U R A L   B O N D   O R B I T A L   A N A L Y S I S
 ************************** Tian Lu Software (101160) **************************
  (c) Copyright 1996-2017 Board of Regents of the University of Wisconsin System
      on behalf of the Theoretical Chemistry Institute.  All rights reserved.

          Cite this program as:

          NBO 6.0.  E. D. Glendening, J. K. Badenhoop, A. E. Reed,
          J. E. Carpenter, J. A. Bohmann, C. M. Morales, C. R. Landis,
          and F. Weinhold (Theoretical Chemistry Institute, University
          of Wisconsin, Madison, WI, 2013); http://nbo6.chem.wisc.edu/

       /AONAO  / : Print the AO to NAO transformation
       /DMNAO  / : Print the NAO density matrix

 Filename set to /sob/g09/scratch/Gau-20876

 Job title:  b3lyp/6-311+G* opted


 NATURAL POPULATIONS:  Natural atomic orbital occupancies

  NAO Atom No lang   Type(AO)    Occupancy      Energy
 -------------------------------------------------------
   1   Li  1  s      Cor( 1s)     1.99991      -2.13887
   2   Li  1  s      Val( 2s)     0.46192      -0.17544
   3   Li  1  s      Ryd( 3s)     0.00001       0.12156
   4   Li  1  s      Ryd( 4s)     0.00000       2.77253
   5   Li  1  px     Ryd( 2p)     0.00000      -0.03466
   6   Li  1  px     Ryd( 3p)     0.00000       0.11787
   7   Li  1  px     Ryd( 4p)     0.00000       0.22795
   8   Li  1  py     Ryd( 2p)     0.06305       0.08343
   9   Li  1  py     Ryd( 3p)     0.00004       0.45052
  10   Li  1  py     Ryd( 4p)     0.00003       0.21515
  11   Li  1  pz     Ryd( 2p)     0.11217      -0.06284
  12   Li  1  pz     Ryd( 3p)     0.00002       0.10080
  13   Li  1  pz     Ryd( 4p)     0.00001       0.18849
  14   Li  1  dxy    Ryd( 3d)     0.00000       0.62022
  15   Li  1  dxz    Ryd( 3d)     0.00000       0.36730
  16   Li  1  dyz    Ryd( 3d)     0.00139       0.47581
  17   Li  1  dx2y2  Ryd( 3d)     0.00063       0.49168
  18   Li  1  dz2    Ryd( 3d)     0.00001       0.53060

  19   Li  2  s      Cor( 1s)     1.99991      -2.13887
  20   Li  2  s      Val( 2s)     0.46192      -0.17544
  21   Li  2  s      Ryd( 3s)     0.00001       0.12156
  22   Li  2  s      Ryd( 4s)     0.00000       2.77253
  23   Li  2  px     Ryd( 2p)     0.04729       0.05391
  24   Li  2  px     Ryd( 3p)     0.00003       0.36736
  25   Li  2  px     Ryd( 4p)     0.00002       0.21835
  26   Li  2  py     Ryd( 2p)     0.01577      -0.00514
  27   Li  2  py     Ryd( 3p)     0.00001       0.20103
  28   Li  2  py     Ryd( 4p)     0.00001       0.22475
  29   Li  2  pz     Ryd( 2p)     0.11217      -0.06284
  30   Li  2  pz     Ryd( 3p)     0.00002       0.10080
  31   Li  2  pz     Ryd( 4p)     0.00001       0.18849
  32   Li  2  dxy    Ryd( 3d)     0.00048       0.52381
  33   Li  2  dxz    Ryd( 3d)     0.00104       0.44868
  34   Li  2  dyz    Ryd( 3d)     0.00035       0.39443
  35   Li  2  dx2y2  Ryd( 3d)     0.00016       0.58809
  36   Li  2  dz2    Ryd( 3d)     0.00001       0.53060

  37   Li  3  s      Cor( 1s)     1.99991      -2.13887
  38   Li  3  s      Val( 2s)     0.46192      -0.17544
  39   Li  3  s      Ryd( 3s)     0.00001       0.12156
  40   Li  3  s      Ryd( 4s)     0.00000       2.77253
  41   Li  3  px     Ryd( 2p)     0.04729       0.05391
  42   Li  3  px     Ryd( 3p)     0.00003       0.36736
  43   Li  3  px     Ryd( 4p)     0.00002       0.21835
  44   Li  3  py     Ryd( 2p)     0.01577      -0.00514
  45   Li  3  py     Ryd( 3p)     0.00001       0.20103
  46   Li  3  py     Ryd( 4p)     0.00001       0.22475
  47   Li  3  pz     Ryd( 2p)     0.11217      -0.06284
  48   Li  3  pz     Ryd( 3p)     0.00002       0.10080
  49   Li  3  pz     Ryd( 4p)     0.00001       0.18849
  50   Li  3  dxy    Ryd( 3d)     0.00048       0.52381
  51   Li  3  dxz    Ryd( 3d)     0.00104       0.44868
  52   Li  3  dyz    Ryd( 3d)     0.00035       0.39443
  53   Li  3  dx2y2  Ryd( 3d)     0.00016       0.58809
  54   Li  3  dz2    Ryd( 3d)     0.00001       0.53060

  55   Li  4  s      Cor( 1s)     1.99992      -2.12838
  56   Li  4  s      Val( 2s)     0.94994      -0.19815
  57   Li  4  s      Ryd( 3s)     0.00426       0.02290
  58   Li  4  s      Ryd( 4s)     0.00000       3.33356
  59   Li  4  px     Ryd( 2p)     0.00000      -0.05917
  60   Li  4  px     Ryd( 3p)     0.00000       0.24397
  61   Li  4  px     Ryd( 4p)     0.00000       0.15030
  62   Li  4  py     Ryd( 2p)     0.00000      -0.05917
  63   Li  4  py     Ryd( 3p)     0.00000       0.24397
  64   Li  4  py     Ryd( 4p)     0.00000       0.15030
  65   Li  4  pz     Ryd( 2p)     0.08605       0.00798
  66   Li  4  pz     Ryd( 3p)     0.00064       0.22395
  67   Li  4  pz     Ryd( 4p)     0.00003       0.22257
  68   Li  4  dxy    Ryd( 3d)     0.00000       0.37247
  69   Li  4  dxz    Ryd( 3d)     0.00000       0.50351
  70   Li  4  dyz    Ryd( 3d)     0.00000       0.50351
  71   Li  4  dx2y2  Ryd( 3d)     0.00000       0.37247
  72   Li  4  dz2    Ryd( 3d)     0.00033       0.50424

  73   Li  5  s      Cor( 1s)     1.99992      -2.12838
  74   Li  5  s      Val( 2s)     0.94994      -0.19815
  75   Li  5  s      Ryd( 3s)     0.00426       0.02290
  76   Li  5  s      Ryd( 4s)     0.00000       3.33356
  77   Li  5  px     Ryd( 2p)     0.00000      -0.05917
  78   Li  5  px     Ryd( 3p)     0.00000       0.24397
  79   Li  5  px     Ryd( 4p)     0.00000       0.15030
  80   Li  5  py     Ryd( 2p)     0.00000      -0.05917
  81   Li  5  py     Ryd( 3p)     0.00000       0.24397
  82   Li  5  py     Ryd( 4p)     0.00000       0.15030
  83   Li  5  pz     Ryd( 2p)     0.08605       0.00798
  84   Li  5  pz     Ryd( 3p)     0.00064       0.22395
  85   Li  5  pz     Ryd( 4p)     0.00003       0.22257
  86   Li  5  dxy    Ryd( 3d)     0.00000       0.37247
  87   Li  5  dxz    Ryd( 3d)     0.00000       0.50351
  88   Li  5  dyz    Ryd( 3d)     0.00000       0.50351
  89   Li  5  dx2y2  Ryd( 3d)     0.00000       0.37247
  90   Li  5  dz2    Ryd( 3d)     0.00033       0.50424

     Population inversion found on atom Li  1
     Population inversion found on atom Li  2
     Population inversion found on atom Li  3
     Population inversion found on atom Li  4
     Population inversion found on atom Li  5


 Summary of Natural Population Analysis:

                                     Natural Population
             Natural    ---------------------------------------------
  Atom No    Charge        Core      Valence    Rydberg      Total
 --------------------------------------------------------------------
   Li  1    0.36079      1.99991     0.46192    0.17738     2.63921
   Li  2    0.36079      1.99991     0.46192    0.17738     2.63921
   Li  3    0.36079      1.99991     0.46192    0.17738     2.63921
   Li  4   -0.04119      1.99992     0.94994    0.09133     3.04119
   Li  5   -0.04119      1.99992     0.94994    0.09133     3.04119
 ====================================================================
 * Total *  1.00000      9.99957     3.28564    0.71478    14.00000

                                 Natural Population
 ---------------------------------------------------------
   Core                       9.99957 ( 99.9957% of   10)
   Valence                    3.28564 ( 82.1411% of    4)
   Natural Minimal Basis     13.28522 ( 94.8944% of   14)
   Natural Rydberg Basis      0.71478 (  5.1056% of   14)
 ---------------------------------------------------------

    Atom No         Natural Electron Configuration
 ----------------------------------------------------------------------------
     Li  1      [core]2s( 0.46)2p( 0.18)
     Li  2      [core]2s( 0.46)2p( 0.18)
     Li  3      [core]2s( 0.46)2p( 0.18)
     Li  4      [core]2s( 0.95)2p( 0.09)
     Li  5      [core]2s( 0.95)2p( 0.09)


 NAOs in the AO basis:

          AO         1       2       3       4       5       6       7       8
      ---------- ------- ------- ------- ------- ------- ------- ------- -------
   1. Li 1 (s)    0.6150 -0.0168 -0.4176 -1.4724  0.0000  0.0000  0.0000 -0.1704
   2. Li 1 (s)    0.4279 -0.3372  0.1815  1.6632  0.0000  0.0000  0.0000  0.3235
   3. Li 1 (px)   0.0000  0.0000  0.0000  0.0000  0.3305 -0.8104  0.9791  0.0000
   4. Li 1 (py)   0.0000 -0.0131 -0.0067  0.1315  0.0000  0.0000  0.0000  0.3519
   5. Li 1 (pz)   0.0000  0.0000  0.0000  0.0000  0.0000  0.0000  0.0000  0.0000
   6. Li 1 (s)    0.0168  1.3509  2.7213 -0.7061  0.0000  0.0000  0.0000 -1.5483
   7. Li 1 (px)   0.0000  0.0000  0.0000  0.0000  1.4606  0.4291 -1.9788  0.0000
   8. Li 1 (py)   0.0000 -0.1199 -0.9108 -1.0695  0.0000  0.0000  0.0000  2.6631
   9. Li 1 (pz)   0.0000  0.0000  0.0000  0.0000  0.0000  0.0000  0.0000  0.0000
  10. Li 1 (s)   -0.0074  0.0616  0.2071 10.2004  0.0000  0.0000  0.0000 -3.4039
  11. Li 1 (px)   0.0000  0.0000  0.0000  0.0000 -0.1765  1.8319  3.8969  0.0000
  12. Li 1 (py)   0.0000  0.0680 -0.6518 -2.5253  0.0000  0.0000  0.0000  0.2245
  13. Li 1 (pz)   0.0000  0.0000  0.0000  0.0000  0.0000  0.0000  0.0000  0.0000
  14. Li 1 (d5)   0.0000 -0.0062 -0.0597 -0.0893  0.0000  0.0000  0.0000  0.0445
  15. Li 1 (d2)   0.0000  0.0000  0.0000  0.0000  0.0000  0.0000  0.0000  0.0000
  16. Li 1 (d3)   0.0000  0.0000  0.0000  0.0000  0.0000  0.0000  0.0000  0.0000
  17. Li 1 (d4)   0.0000 -0.0054 -0.0546 -0.0841  0.0000  0.0000  0.0000  0.0571
  18. Li 1 (d1)   0.0000  0.0000  0.0000  0.0000 -0.0312  0.0118  0.1138  0.0000
  19. Li 2 (s)   -0.0004 -0.0313 -0.0218 -0.0490  0.0898  0.0759  0.0598  0.1387
  20. Li 2 (s)   -0.0003  0.0270  0.0761  0.0663 -0.1479 -0.0497 -0.0824 -0.1875
  21. Li 2 (px)   0.0000 -0.0036  0.0206  0.0966  0.0106 -0.0426 -0.0549  0.0061
  22. Li 2 (py)   0.0000 -0.0084  0.0106  0.1241  0.0220 -0.1334 -0.1488  0.0217
  23. Li 2 (pz)   0.0000  0.0000  0.0000  0.0000  0.0000  0.0000  0.0000  0.0000
  24. Li 2 (s)    0.0000 -0.1862 -0.2639  0.0706  0.7596 -0.1857 -0.2529  1.0165
  25. Li 2 (px)   0.0000 -0.0654 -0.4073 -0.3431  0.4229  0.1930  0.8854  0.4515
  26. Li 2 (py)   0.0000 -0.1077 -0.7102 -0.6718  0.4822  0.2624 -0.2121  0.9498
  27. Li 2 (pz)   0.0000  0.0000  0.0000  0.0000  0.0000  0.0000  0.0000  0.0000
  28. Li 2 (s)    0.0000 -0.0655 -1.3239 -4.6556  0.7648  3.0925  6.0305  1.2605
  29. Li 2 (px)   0.0000  0.0171 -0.2687 -0.9157  0.0097  0.2140  0.6848  0.1382
  30. Li 2 (py)   0.0000  0.0443 -0.2790 -1.2551  0.0678  0.5782  1.9319  0.1616
  31. Li 2 (pz)   0.0000  0.0000  0.0000  0.0000  0.0000  0.0000  0.0000  0.0000
  32. Li 2 (d5)   0.0000  0.0044  0.0296  0.0286 -0.0258  0.0409 -0.0329 -0.0411
  33. Li 2 (d2)   0.0000  0.0000  0.0000  0.0000  0.0000  0.0000  0.0000  0.0000
  34. Li 2 (d3)   0.0000  0.0000  0.0000  0.0000  0.0000  0.0000  0.0000  0.0000
  35. Li 2 (d4)   0.0000  0.0050  0.0284  0.0193  0.0038  0.0309  0.1334 -0.0392
  36. Li 2 (d1)   0.0000 -0.0075 -0.0716 -0.1063  0.0426 -0.0923  0.1144  0.0726
  37. Li 3 (s)   -0.0004 -0.0313 -0.0218 -0.0490 -0.0898 -0.0759 -0.0598  0.1387
  38. Li 3 (s)   -0.0003  0.0270  0.0761  0.0663  0.1479  0.0497  0.0824 -0.1875
  39. Li 3 (px)   0.0000  0.0036 -0.0206 -0.0966  0.0106 -0.0426 -0.0549 -0.0061
  40. Li 3 (py)   0.0000 -0.0084  0.0106  0.1241 -0.0220  0.1334  0.1488  0.0217
  41. Li 3 (pz)   0.0000  0.0000  0.0000  0.0000  0.0000  0.0000  0.0000  0.0000
  42. Li 3 (s)    0.0000 -0.1862 -0.2639  0.0706 -0.7596  0.1857  0.2529  1.0165
  43. Li 3 (px)   0.0000  0.0654  0.4073  0.3431  0.4229  0.1930  0.8854 -0.4515
  44. Li 3 (py)   0.0000 -0.1077 -0.7102 -0.6718 -0.4822 -0.2624  0.2121  0.9498
  45. Li 3 (pz)   0.0000  0.0000  0.0000  0.0000  0.0000  0.0000  0.0000  0.0000
  46. Li 3 (s)    0.0000 -0.0655 -1.3239 -4.6556 -0.7648 -3.0925 -6.0305  1.2605
  47. Li 3 (px)   0.0000 -0.0171  0.2687  0.9157  0.0097  0.2140  0.6848 -0.1382
  48. Li 3 (py)   0.0000  0.0443 -0.2790 -1.2551 -0.0678 -0.5782 -1.9319  0.1616
  49. Li 3 (pz)   0.0000  0.0000  0.0000  0.0000  0.0000  0.0000  0.0000  0.0000
  50. Li 3 (d5)   0.0000  0.0044  0.0296  0.0286  0.0258 -0.0409  0.0329 -0.0411
  51. Li 3 (d2)   0.0000  0.0000  0.0000  0.0000  0.0000  0.0000  0.0000  0.0000
  52. Li 3 (d3)   0.0000  0.0000  0.0000  0.0000  0.0000  0.0000  0.0000  0.0000
  53. Li 3 (d4)   0.0000  0.0050  0.0284  0.0193 -0.0038 -0.0309 -0.1334 -0.0392
  54. Li 3 (d1)   0.0000  0.0075  0.0716  0.1063  0.0426 -0.0923  0.1144 -0.0726
  55. Li 4 (s)   -0.0001 -0.0131  0.0332  0.0081  0.0000  0.0000  0.0000  0.0192
  56. Li 4 (s)   -0.0001  0.0196 -0.0437 -0.0259  0.0000  0.0000  0.0000 -0.0314
  57. Li 4 (px)   0.0000  0.0000  0.0000  0.0000 -0.0043  0.0058 -0.0239  0.0000
  58. Li 4 (py)   0.0000  0.0005  0.0032  0.0023  0.0000  0.0000  0.0000 -0.0117
  59. Li 4 (pz)   0.0000 -0.0005 -0.0071 -0.0133  0.0000  0.0000  0.0000  0.0043
  60. Li 4 (s)    0.0000 -0.1291  0.2553  0.2141  0.0000  0.0000  0.0000  0.1526
  61. Li 4 (px)   0.0000  0.0000  0.0000  0.0000  0.0791  0.0063  0.3613  0.0000
  62. Li 4 (py)   0.0000 -0.0212 -0.1681 -0.2081  0.0000  0.0000  0.0000  0.3061
  63. Li 4 (pz)   0.0000  0.0143  0.0119 -0.1316  0.0000  0.0000  0.0000 -0.1259
  64. Li 4 (s)    0.0000  0.0283  0.2850 -0.3028  0.0000  0.0000  0.0000  0.2561
  65. Li 4 (px)   0.0000  0.0000  0.0000  0.0000 -0.0362  0.0282 -0.1946  0.0000
  66. Li 4 (py)   0.0000  0.0061 -0.1015 -0.3415  0.0000  0.0000  0.0000 -0.0018
  67. Li 4 (pz)   0.0000 -0.0054  0.0293  0.1407  0.0000  0.0000  0.0000 -0.0515
  68. Li 4 (d5)   0.0000 -0.0005  0.0087  0.0294  0.0000  0.0000  0.0000 -0.0055
  69. Li 4 (d2)   0.0000  0.0000  0.0000  0.0000 -0.0141  0.0159 -0.0773  0.0000
  70. Li 4 (d3)   0.0000  0.0016  0.0138  0.0182  0.0000  0.0000  0.0000 -0.0156
  71. Li 4 (d4)   0.0000  0.0006  0.0085  0.0159  0.0000  0.0000  0.0000 -0.0112
  72. Li 4 (d1)   0.0000  0.0000  0.0000  0.0000  0.0045 -0.0289  0.0293  0.0000
  73. Li 5 (s)   -0.0001 -0.0131  0.0332  0.0081  0.0000  0.0000  0.0000  0.0192
  74. Li 5 (s)   -0.0001  0.0196 -0.0437 -0.0259  0.0000  0.0000  0.0000 -0.0314
  75. Li 5 (px)   0.0000  0.0000  0.0000  0.0000 -0.0043  0.0058 -0.0239  0.0000
  76. Li 5 (py)   0.0000  0.0005  0.0032  0.0023  0.0000  0.0000  0.0000 -0.0117
  77. Li 5 (pz)   0.0000  0.0005  0.0071  0.0133  0.0000  0.0000  0.0000 -0.0043
  78. Li 5 (s)    0.0000 -0.1291  0.2553  0.2141  0.0000  0.0000  0.0000  0.1526
  79. Li 5 (px)   0.0000  0.0000  0.0000  0.0000  0.0791  0.0063  0.3613  0.0000
  80. Li 5 (py)   0.0000 -0.0212 -0.1681 -0.2081  0.0000  0.0000  0.0000  0.3061
  81. Li 5 (pz)   0.0000 -0.0143 -0.0119  0.1316  0.0000  0.0000  0.0000  0.1259
  82. Li 5 (s)    0.0000  0.0283  0.2850 -0.3028  0.0000  0.0000  0.0000  0.2561
  83. Li 5 (px)   0.0000  0.0000  0.0000  0.0000 -0.0362  0.0282 -0.1946  0.0000
  84. Li 5 (py)   0.0000  0.0061 -0.1015 -0.3415  0.0000  0.0000  0.0000 -0.0018
  85. Li 5 (pz)   0.0000  0.0054 -0.0293 -0.1407  0.0000  0.0000  0.0000  0.0515
  86. Li 5 (d5)   0.0000 -0.0005  0.0087  0.0294  0.0000  0.0000  0.0000 -0.0055
  87. Li 5 (d2)   0.0000  0.0000  0.0000  0.0000  0.0141 -0.0159  0.0773  0.0000
  88. Li 5 (d3)   0.0000 -0.0016 -0.0138 -0.0182  0.0000  0.0000  0.0000  0.0156
  89. Li 5 (d4)   0.0000  0.0006  0.0085  0.0159  0.0000  0.0000  0.0000 -0.0112
  90. Li 5 (d1)   0.0000  0.0000  0.0000  0.0000  0.0045 -0.0289  0.0293  0.0000

          AO         9      10      11      12      13      14      15      16
      ---------- ------- ------- ------- ------- ------- ------- ------- -------
   1. Li 1 (s)    0.1980 -0.1548  0.0000  0.0000  0.0000  0.0000  0.0000  0.0000
   2. Li 1 (s)   -0.2447  0.0720  0.0000  0.0000  0.0000  0.0000  0.0000  0.0000
   3. Li 1 (px)   0.0000  0.0000  0.0000  0.0000  0.0000 -0.0818  0.0000  0.0000
   4. Li 1 (py)   1.0595  0.6226  0.0000  0.0000  0.0000  0.0000  0.0000  0.0000
   5. Li 1 (pz)   0.0000  0.0000  0.3209  0.7795  0.8807  0.0000  0.0000 -0.0321
   6. Li 1 (s)   -0.3230  1.3578  0.0000  0.0000  0.0000  0.0000  0.0000  0.0000
   7. Li 1 (px)   0.0000  0.0000  0.0000  0.0000  0.0000 -1.2695  0.0000  0.0000
   8. Li 1 (py)  -1.9813  0.2067  0.0000  0.0000  0.0000  0.0000  0.0000  0.0000
   9. Li 1 (pz)   0.0000  0.0000  1.4830 -1.0496 -2.6146  0.0000  0.0000 -0.9338
  10. Li 1 (s)    7.2641-24.1601  0.0000  0.0000  0.0000  0.0000  0.0000  0.0000
  11. Li 1 (px)   0.0000  0.0000  0.0000  0.0000  0.0000  0.4348  0.0000  0.0000
  12. Li 1 (py)  -2.7752  8.9049  0.0000  0.0000  0.0000  0.0000  0.0000  0.0000
  13. Li 1 (pz)   0.0000  0.0000  0.3867 -0.7391  7.2734  0.0000  0.0000  0.1339
  14. Li 1 (d5)   0.0552  0.0166  0.0000  0.0000  0.0000  0.0000  0.0000  0.0000
  15. Li 1 (d2)   0.0000  0.0000  0.0000  0.0000  0.0000  0.0000  1.0614  0.0000
  16. Li 1 (d3)   0.0000  0.0000  0.0091  0.1821  0.1667  0.0000  0.0000  1.2399
  17. Li 1 (d4)  -0.0901  0.1270  0.0000  0.0000  0.0000  0.0000  0.0000  0.0000
  18. Li 1 (d1)   0.0000  0.0000  0.0000  0.0000  0.0000  1.4308  0.0000  0.0000
  19. Li 2 (s)   -0.2503  0.1479  0.0000  0.0000  0.0000 -0.1676  0.0000  0.0000
  20. Li 2 (s)    0.2642 -0.2157  0.0000  0.0000  0.0000  0.3017  0.0000  0.0000
  21. Li 2 (px)   0.0443 -0.1379  0.0000  0.0000  0.0000 -0.0481  0.0000  0.0000
  22. Li 2 (py)   0.1213 -0.2494  0.0000  0.0000  0.0000 -0.0804  0.0000  0.0000
  23. Li 2 (pz)   0.0000  0.0000 -0.0008  0.0066 -0.0318  0.0000  0.0097  0.0063
  24. Li 2 (s)   -1.1742  0.0300  0.0000  0.0000  0.0000 -1.7719  0.0000  0.0000
  25. Li 2 (px)  -0.1469  0.3977  0.0000  0.0000  0.0000 -0.8513  0.0000  0.0000
  26. Li 2 (py)  -0.6476  1.0687  0.0000  0.0000  0.0000 -1.0840  0.0000  0.0000
  27. Li 2 (pz)   0.0000  0.0000  0.1667  0.0927  0.6266  0.0000  0.1687  0.0440
  28. Li 2 (s)   -2.4932 10.5095  0.0000  0.0000  0.0000  0.5958  0.0000  0.0000
  29. Li 2 (px)  -0.0399  1.7306  0.0000  0.0000  0.0000  0.2468  0.0000  0.0000
  30. Li 2 (py)  -0.4313  2.9974  0.0000  0.0000  0.0000  0.4408  0.0000  0.0000
  31. Li 2 (pz)   0.0000  0.0000  0.0523  0.0269  0.4492  0.0000 -0.0500 -0.0379
  32. Li 2 (d5)  -0.0452 -0.0622  0.0000  0.0000  0.0000  0.1565  0.0000  0.0000
  33. Li 2 (d2)   0.0000  0.0000  0.0115  0.0035  0.0659  0.0000  0.0457  0.0548
  34. Li 2 (d3)   0.0000  0.0000  0.0107  0.0231  0.1003  0.0000  0.0894  0.1289
  35. Li 2 (d4)  -0.0315 -0.0510  0.0000  0.0000  0.0000  0.1797  0.0000  0.0000
  36. Li 2 (d1)   0.1100  0.1197  0.0000  0.0000  0.0000 -0.2019  0.0000  0.0000
  37. Li 3 (s)   -0.2503  0.1479  0.0000  0.0000  0.0000  0.1676  0.0000  0.0000
  38. Li 3 (s)    0.2642 -0.2157  0.0000  0.0000  0.0000 -0.3017  0.0000  0.0000
  39. Li 3 (px)  -0.0443  0.1379  0.0000  0.0000  0.0000 -0.0481  0.0000  0.0000
  40. Li 3 (py)   0.1213 -0.2494  0.0000  0.0000  0.0000  0.0804  0.0000  0.0000
  41. Li 3 (pz)   0.0000  0.0000 -0.0008  0.0066 -0.0318  0.0000 -0.0097  0.0063
  42. Li 3 (s)   -1.1742  0.0300  0.0000  0.0000  0.0000  1.7719  0.0000  0.0000
  43. Li 3 (px)   0.1469 -0.3977  0.0000  0.0000  0.0000 -0.8513  0.0000  0.0000
  44. Li 3 (py)  -0.6476  1.0687  0.0000  0.0000  0.0000  1.0840  0.0000  0.0000
  45. Li 3 (pz)   0.0000  0.0000  0.1667  0.0927  0.6266  0.0000 -0.1687  0.0440
  46. Li 3 (s)   -2.4932 10.5095  0.0000  0.0000  0.0000 -0.5958  0.0000  0.0000
  47. Li 3 (px)   0.0399 -1.7306  0.0000  0.0000  0.0000  0.2468  0.0000  0.0000
  48. Li 3 (py)  -0.4313  2.9974  0.0000  0.0000  0.0000 -0.4408  0.0000  0.0000
  49. Li 3 (pz)   0.0000  0.0000  0.0523  0.0269  0.4492  0.0000  0.0500 -0.0379
  50. Li 3 (d5)  -0.0452 -0.0622  0.0000  0.0000  0.0000 -0.1565  0.0000  0.0000
  51. Li 3 (d2)   0.0000  0.0000 -0.0115 -0.0035 -0.0659  0.0000  0.0457 -0.0548
  52. Li 3 (d3)   0.0000  0.0000  0.0107  0.0231  0.1003  0.0000 -0.0894  0.1289
  53. Li 3 (d4)  -0.0315 -0.0510  0.0000  0.0000  0.0000 -0.1797  0.0000  0.0000
  54. Li 3 (d1)  -0.1100 -0.1197  0.0000  0.0000  0.0000 -0.2019  0.0000  0.0000
  55. Li 4 (s)   -0.0909  0.0292 -0.0373  0.0655 -0.0004  0.0000  0.0000  0.0293
  56. Li 4 (s)    0.1303 -0.0424  0.0910 -0.0986 -0.0531  0.0000  0.0000 -0.0971
  57. Li 4 (px)   0.0000  0.0000  0.0000  0.0000  0.0000  0.0014  0.0015  0.0000
  58. Li 4 (py)  -0.0177 -0.0422 -0.0045 -0.0072 -0.0667  0.0000  0.0000 -0.0048
  59. Li 4 (pz)   0.0066  0.0054 -0.0106 -0.0193 -0.0031  0.0000  0.0000  0.0083
  60. Li 4 (s)   -0.7946  0.0448 -0.3823  0.4991  1.1525  0.0000  0.0000  0.5175
  61. Li 4 (px)   0.0000  0.0000  0.0000  0.0000  0.0000 -0.1114 -0.0806  0.0000
  62. Li 4 (py)  -0.3726  0.6649 -0.1971  0.6046  0.5796  0.0000  0.0000  0.2908
  63. Li 4 (pz)   0.3059  0.0851  0.4692 -0.3748  0.0606  0.0000  0.0000 -0.5239
  64. Li 4 (s)   -0.2873  1.3969 -1.1492  0.0770 -7.8170  0.0000  0.0000 -0.0492
  65. Li 4 (px)   0.0000  0.0000  0.0000  0.0000  0.0000  0.0255  0.0238  0.0000
  66. Li 4 (py)   0.1215  0.3490 -0.2034 -0.4416 -1.7695  0.0000  0.0000 -0.0797
  67. Li 4 (pz)  -0.1568 -0.5734  0.2351  0.5484  2.1891  0.0000  0.0000  0.1405
  68. Li 4 (d5)  -0.0106 -0.0596 -0.0175 -0.0332 -0.0417  0.0000  0.0000  0.0754
  69. Li 4 (d2)   0.0000  0.0000  0.0000  0.0000  0.0000  0.0036  0.0181  0.0000
  70. Li 4 (d3)   0.0178 -0.0487 -0.0155 -0.0437 -0.1606  0.0000  0.0000 -0.0963
  71. Li 4 (d4)  -0.0023 -0.0521 -0.0042 -0.0257 -0.0454  0.0000  0.0000 -0.0269
  72. Li 4 (d1)   0.0000  0.0000  0.0000  0.0000  0.0000  0.0169 -0.0339  0.0000
  73. Li 5 (s)   -0.0909  0.0292  0.0373 -0.0655  0.0004  0.0000  0.0000 -0.0293
  74. Li 5 (s)    0.1303 -0.0424 -0.0910  0.0986  0.0531  0.0000  0.0000  0.0971
  75. Li 5 (px)   0.0000  0.0000  0.0000  0.0000  0.0000  0.0014 -0.0015  0.0000
  76. Li 5 (py)  -0.0177 -0.0422  0.0045  0.0072  0.0667  0.0000  0.0000  0.0048
  77. Li 5 (pz)  -0.0066 -0.0054 -0.0106 -0.0193 -0.0031  0.0000  0.0000  0.0083
  78. Li 5 (s)   -0.7946  0.0448  0.3823 -0.4991 -1.1525  0.0000  0.0000 -0.5175
  79. Li 5 (px)   0.0000  0.0000  0.0000  0.0000  0.0000 -0.1114  0.0806  0.0000
  80. Li 5 (py)  -0.3726  0.6649  0.1971 -0.6046 -0.5796  0.0000  0.0000 -0.2908
  81. Li 5 (pz)  -0.3059 -0.0851  0.4692 -0.3748  0.0606  0.0000  0.0000 -0.5239
  82. Li 5 (s)   -0.2873  1.3969  1.1492 -0.0770  7.8170  0.0000  0.0000  0.0492
  83. Li 5 (px)   0.0000  0.0000  0.0000  0.0000  0.0000  0.0255 -0.0238  0.0000
  84. Li 5 (py)   0.1215  0.3490  0.2034  0.4416  1.7695  0.0000  0.0000  0.0797
  85. Li 5 (pz)   0.1568  0.5734  0.2351  0.5484  2.1891  0.0000  0.0000  0.1405
  86. Li 5 (d5)  -0.0106 -0.0596  0.0175  0.0332  0.0417  0.0000  0.0000 -0.0754
  87. Li 5 (d2)   0.0000  0.0000  0.0000  0.0000  0.0000 -0.0036  0.0181  0.0000
  88. Li 5 (d3)  -0.0178  0.0487 -0.0155 -0.0437 -0.1606  0.0000  0.0000 -0.0963
  89. Li 5 (d4)  -0.0023 -0.0521  0.0042  0.0257  0.0454  0.0000  0.0000  0.0269
  90. Li 5 (d1)   0.0000  0.0000  0.0000  0.0000  0.0000  0.0169  0.0339  0.0000

          AO        17      18      19      20      21      22      23      24
      ---------- ------- ------- ------- ------- ------- ------- ------- -------
   1. Li 1 (s)   -0.1280 -0.1181 -0.0004 -0.0313 -0.0218  0.0490 -0.0752  0.1788
   2. Li 1 (s)    0.2518  0.1824 -0.0003  0.0270  0.0761 -0.0663  0.0884 -0.2039
   3. Li 1 (px)   0.0000  0.0000  0.0000  0.0054  0.0012  0.0592  0.0067  0.0247
   4. Li 1 (py)   0.0535  0.0659  0.0000  0.0073 -0.0231  0.1457  0.0039  0.0340
   5. Li 1 (pz)   0.0000  0.0000  0.0000  0.0000  0.0000  0.0000  0.0000  0.0000
   6. Li 1 (s)   -1.3759 -1.1672  0.0000 -0.1862 -0.2639 -0.0706 -0.5005  1.1097
   7. Li 1 (px)   0.0000  0.0000  0.0000  0.0606  0.4114 -0.4102  0.4138 -0.3567
   8. Li 1 (py)   1.3274  0.9959  0.0000  0.1105  0.7078 -0.6330  0.4463 -0.2415
   9. Li 1 (pz)   0.0000  0.0000  0.0000  0.0000  0.0000  0.0000  0.0000  0.0000
  10. Li 1 (s)    0.0769  0.6553  0.0000 -0.0655 -1.3239  4.6556 -0.7092  0.6129
  11. Li 1 (px)   0.0000  0.0000  0.0000 -0.0298  0.1073 -0.6291  0.0345 -0.1093
  12. Li 1 (py)  -0.2425 -0.3527  0.0000 -0.0370  0.3722 -1.4206  0.1525  0.0206
  13. Li 1 (pz)   0.0000  0.0000  0.0000  0.0000  0.0000  0.0000  0.0000  0.0000
  14. Li 1 (d5)   0.0997  1.2910  0.0000  0.0044  0.0296 -0.0286  0.0227  0.0187
  15. Li 1 (d2)   0.0000  0.0000  0.0000  0.0000  0.0000  0.0000  0.0000  0.0000
  16. Li 1 (d3)   0.0000  0.0000  0.0000  0.0000  0.0000  0.0000  0.0000  0.0000
  17. Li 1 (d4)   1.2200  0.0997  0.0000  0.0040  0.0478 -0.0825  0.0181  0.0366
  18. Li 1 (d1)   0.0000  0.0000  0.0000 -0.0080 -0.0604  0.0698 -0.0518 -0.0348
  19. Li 2 (s)    0.0858  0.0899  0.6150 -0.0168 -0.4176  1.4724  0.1475 -0.1715
  20. Li 2 (s)   -0.1379 -0.1811  0.4279 -0.3372  0.1815 -1.6632 -0.2801  0.2119
  21. Li 2 (px)   0.0332  0.0253  0.0000  0.0113  0.0058  0.1138  0.3466  0.9972
  22. Li 2 (py)   0.0358  0.0510  0.0000  0.0065  0.0034  0.0657  0.0093  0.1079
  23. Li 2 (pz)   0.0000  0.0000  0.0000  0.0000  0.0000  0.0000  0.0000  0.0000
  24. Li 2 (s)    0.8333  1.0221  0.0168  1.3509  2.7213  0.7061  1.3409  0.2797
  25. Li 2 (px)   0.4510  0.4209  0.0000  0.1039  0.7888 -0.9262  2.3625 -1.5933
  26. Li 2 (py)   0.5202  0.7727  0.0000  0.0600  0.4554 -0.5348  0.5207 -0.6721
  27. Li 2 (pz)   0.0000  0.0000  0.0000  0.0000  0.0000  0.0000  0.0000  0.0000
  28. Li 2 (s)   -0.2590 -0.2897 -0.0074  0.0616  0.2071-10.2004  2.9479 -6.2909
  29. Li 2 (px)  -0.1818 -0.1320  0.0000 -0.0589  0.5645 -2.1870  0.1243 -2.5394
  30. Li 2 (py)  -0.1933 -0.2729  0.0000 -0.0340  0.3259 -1.2627  0.1736 -0.4084
  31. Li 2 (pz)   0.0000  0.0000  0.0000  0.0000  0.0000  0.0000  0.0000  0.0000
  32. Li 2 (d5)  -0.0761 -0.0694  0.0000 -0.0062 -0.0597  0.0893 -0.0385 -0.0478
  33. Li 2 (d2)   0.0000  0.0000  0.0000  0.0000  0.0000  0.0000  0.0000  0.0000
  34. Li 2 (d3)   0.0000  0.0000  0.0000  0.0000  0.0000  0.0000  0.0000  0.0000
  35. Li 2 (d4)   0.0202 -0.0975  0.0000  0.0027  0.0273 -0.0421  0.0382 -0.0339
  36. Li 2 (d1)   0.2050  0.1441  0.0000  0.0047  0.0472 -0.0728  0.0350 -0.0705
  37. Li 3 (s)    0.0858  0.0899 -0.0004 -0.0313 -0.0218  0.0490 -0.1650  0.2547
  38. Li 3 (s)   -0.1379 -0.1811 -0.0003  0.0270  0.0761 -0.0663  0.2363 -0.2537
  39. Li 3 (px)  -0.0332 -0.0253  0.0000  0.0091 -0.0194  0.1557  0.0310  0.1786
  40. Li 3 (py)   0.0358  0.0510  0.0000  0.0011  0.0126 -0.0216  0.0057  0.0342
  41. Li 3 (pz)   0.0000  0.0000  0.0000  0.0000  0.0000  0.0000  0.0000  0.0000
  42. Li 3 (s)    0.8333  1.0221  0.0000 -0.1862 -0.2639 -0.0706 -1.2601  0.9240
  43. Li 3 (px)  -0.4510 -0.4209  0.0000  0.1260  0.8187 -0.7533  1.2224 -0.7112
  44. Li 3 (py)   0.5202  0.7727  0.0000 -0.0028  0.0024 -0.0387  0.0101 -0.1523
  45. Li 3 (pz)   0.0000  0.0000  0.0000  0.0000  0.0000  0.0000  0.0000  0.0000
  46. Li 3 (s)   -0.2590 -0.2897  0.0000 -0.0655 -1.3239  4.6556 -1.4740  3.7054
  47. Li 3 (px)   0.1818  0.1320  0.0000 -0.0469  0.3760 -1.5448  0.2128 -0.6446
  48. Li 3 (py)  -0.1933 -0.2729  0.0000 -0.0074 -0.0932  0.1655 -0.0210 -0.2087
  49. Li 3 (pz)   0.0000  0.0000  0.0000  0.0000  0.0000  0.0000  0.0000  0.0000
  50. Li 3 (d5)  -0.0761 -0.0694  0.0000  0.0044  0.0296 -0.0286  0.0484  0.0596
  51. Li 3 (d2)   0.0000  0.0000  0.0000  0.0000  0.0000  0.0000  0.0000  0.0000
  52. Li 3 (d3)   0.0000  0.0000  0.0000  0.0000  0.0000  0.0000  0.0000  0.0000
  53. Li 3 (d4)   0.0202 -0.0975  0.0000 -0.0090 -0.0762  0.1017 -0.0889 -0.1439
  54. Li 3 (d1)  -0.2050 -0.1441  0.0000 -0.0006  0.0112 -0.0365  0.0144  0.0337
  55. Li 4 (s)    0.0119 -0.0212 -0.0001 -0.0131  0.0332 -0.0081 -0.0167  0.0787
  56. Li 4 (s)   -0.0258  0.0961 -0.0001  0.0196 -0.0437  0.0259  0.0272 -0.1128
  57. Li 4 (px)   0.0000  0.0000  0.0000 -0.0005 -0.0027  0.0020 -0.0098 -0.0147
  58. Li 4 (py)  -0.0014  0.0039  0.0000 -0.0003 -0.0016  0.0012 -0.0032 -0.0051
  59. Li 4 (pz)   0.0013 -0.0090  0.0000 -0.0005 -0.0071  0.0133 -0.0037 -0.0057
  60. Li 4 (s)    0.1341 -0.4755  0.0000 -0.1291  0.2553 -0.2141 -0.1321  0.6881
  61. Li 4 (px)   0.0000  0.0000  0.0000  0.0184  0.1456 -0.1802  0.2494 -0.2810
  62. Li 4 (py)   0.1432 -0.1644  0.0000  0.0106  0.0840 -0.1041  0.0983 -0.1586
  63. Li 4 (pz)  -0.1076  0.5343  0.0000  0.0143  0.0119  0.1316  0.1090 -0.2649
  64. Li 4 (s)    0.0854 -0.0312  0.0000  0.0283  0.2850  0.3028 -0.2218  0.2488
  65. Li 4 (px)   0.0000  0.0000  0.0000 -0.0053  0.0879 -0.2958 -0.0104  0.0841
  66. Li 4 (py)  -0.0281  0.0594  0.0000 -0.0030  0.0507 -0.1708  0.0149  0.0648
  67. Li 4 (pz)   0.0241 -0.1498  0.0000 -0.0054  0.0293 -0.1407  0.0446  0.1358
  68. Li 4 (d5)   0.0229 -0.0525  0.0000 -0.0005  0.0087 -0.0294  0.0047  0.0092
  69. Li 4 (d2)   0.0000  0.0000  0.0000 -0.0014 -0.0119  0.0157 -0.0153  0.0094
  70. Li 4 (d3)  -0.0341  0.0680  0.0000 -0.0008 -0.0069  0.0091 -0.0007  0.0146
  71. Li 4 (d4)   0.0000  0.0270  0.0000 -0.0003 -0.0043  0.0080 -0.0068 -0.0135
  72. Li 4 (d1)   0.0000  0.0000  0.0000 -0.0005 -0.0074  0.0138 -0.0073  0.0055
  73. Li 5 (s)    0.0119 -0.0212 -0.0001 -0.0131  0.0332 -0.0081 -0.0167  0.0787
  74. Li 5 (s)   -0.0258  0.0961 -0.0001  0.0196 -0.0437  0.0259  0.0272 -0.1128
  75. Li 5 (px)   0.0000  0.0000  0.0000 -0.0005 -0.0027  0.0020 -0.0098 -0.0147
  76. Li 5 (py)  -0.0014  0.0039  0.0000 -0.0003 -0.0016  0.0012 -0.0032 -0.0051
  77. Li 5 (pz)  -0.0013  0.0090  0.0000  0.0005  0.0071 -0.0133  0.0037  0.0057
  78. Li 5 (s)    0.1341 -0.4755  0.0000 -0.1291  0.2553 -0.2141 -0.1321  0.6881
  79. Li 5 (px)   0.0000  0.0000  0.0000  0.0184  0.1456 -0.1802  0.2494 -0.2810
  80. Li 5 (py)   0.1432 -0.1644  0.0000  0.0106  0.0840 -0.1041  0.0983 -0.1586
  81. Li 5 (pz)   0.1076 -0.5343  0.0000 -0.0143 -0.0119 -0.1316 -0.1090  0.2649
  82. Li 5 (s)    0.0854 -0.0312  0.0000  0.0283  0.2850  0.3028 -0.2218  0.2488
  83. Li 5 (px)   0.0000  0.0000  0.0000 -0.0053  0.0879 -0.2958 -0.0104  0.0841
  84. Li 5 (py)  -0.0281  0.0594  0.0000 -0.0030  0.0507 -0.1708  0.0149  0.0648
  85. Li 5 (pz)  -0.0241  0.1498  0.0000  0.0054 -0.0293  0.1407 -0.0446 -0.1358
  86. Li 5 (d5)   0.0229 -0.0525  0.0000 -0.0005  0.0087 -0.0294  0.0047  0.0092
  87. Li 5 (d2)   0.0000  0.0000  0.0000  0.0014  0.0119 -0.0157  0.0153 -0.0094
  88. Li 5 (d3)   0.0341 -0.0680  0.0000  0.0008  0.0069 -0.0091  0.0007 -0.0146
  89. Li 5 (d4)   0.0000  0.0270  0.0000 -0.0003 -0.0043  0.0080 -0.0068 -0.0135
  90. Li 5 (d1)   0.0000  0.0000  0.0000 -0.0005 -0.0074  0.0138 -0.0073  0.0055

          AO        25      26      27      28      29      30      31      32
      ---------- ------- ------- ------- ------- ------- ------- ------- -------
   1. Li 1 (s)    0.0982 -0.1471  0.1909 -0.1258  0.0000  0.0000  0.0000 -0.1580
   2. Li 1 (s)   -0.1456  0.2218 -0.1752  0.1792  0.0000  0.0000  0.0000  0.2703
   3. Li 1 (px)   0.0767  0.0198  0.1231 -0.1613  0.0000  0.0000  0.0000  0.0353
   4. Li 1 (py)   0.1505  0.0255  0.1392 -0.2277  0.0000  0.0000  0.0000  0.0813
   5. Li 1 (pz)   0.0000  0.0000  0.0000  0.0000 -0.0008  0.0066 -0.0318  0.0000
   6. Li 1 (s)    0.1525 -1.1661  0.4262  0.2040  0.0000  0.0000  0.0000 -1.6076
   7. Li 1 (px)  -0.9425  0.4769 -0.3569 -0.1792  0.0000  0.0000  0.0000  0.4515
   8. Li 1 (py)  -0.4306  0.9589 -0.4839  1.0116  0.0000  0.0000  0.0000  1.2031
   9. Li 1 (pz)   0.0000  0.0000  0.0000  0.0000  0.1667  0.0927  0.6266  0.0000
  10. Li 1 (s)    6.0862 -1.2926  3.9248-10.4773  0.0000  0.0000  0.0000  0.5222
  11. Li 1 (px)  -0.8334  0.0820 -0.5177  2.0177  0.0000  0.0000  0.0000 -0.1954
  12. Li 1 (py)  -1.8164  0.1369 -0.5359  2.8488  0.0000  0.0000  0.0000 -0.4371
  13. Li 1 (pz)   0.0000  0.0000  0.0000  0.0000  0.0523  0.0269  0.4492  0.0000
  14. Li 1 (d5)  -0.0374  0.0428  0.0580  0.0595  0.0000  0.0000  0.0000  0.1441
  15. Li 1 (d2)   0.0000  0.0000  0.0000  0.0000 -0.0035 -0.0183 -0.0539  0.0000
  16. Li 1 (d3)   0.0000  0.0000  0.0000  0.0000 -0.0153 -0.0146 -0.1073  0.0000
  17. Li 1 (d4)   0.0152  0.0552  0.0956  0.1826  0.0000  0.0000  0.0000  0.2050
  18. Li 1 (d1)   0.1192 -0.0507 -0.1043 -0.0015  0.0000  0.0000  0.0000 -0.2019
  19. Li 2 (s)   -0.1341  0.0852 -0.0990  0.0774  0.0000  0.0000  0.0000  0.1108
  20. Li 2 (s)    0.0624 -0.1617  0.1224 -0.0360  0.0000  0.0000  0.0000 -0.2181
  21. Li 2 (px)  -0.7117  0.0093  0.1079 -0.1544  0.0000  0.0000  0.0000  0.0196
  22. Li 2 (py)   0.1544  0.3359  0.8727  0.8899  0.0000  0.0000  0.0000  0.0586
  23. Li 2 (pz)   0.0000  0.0000  0.0000  0.0000  0.3209  0.7795  0.8807  0.0000
  24. Li 2 (s)    1.1758  0.7741  0.1615 -0.6789  0.0000  0.0000  0.0000  1.1916
  25. Li 2 (px)   0.3397  0.5207 -0.6721  0.9464  0.0000  0.0000  0.0000  0.6782
  26. Li 2 (py)  -0.9464  1.7612 -0.8171 -1.4325  0.0000  0.0000  0.0000  1.1245
  27. Li 2 (pz)   0.0000  0.0000  0.0000  0.0000  1.4830 -1.0496 -2.6146  0.0000
  28. Li 2 (s)  -20.9232  1.7020 -3.6320 12.0800  0.0000  0.0000  0.0000 -0.0666
  29. Li 2 (px)  -7.6529  0.1736 -0.4084  2.1685  0.0000  0.0000  0.0000 -0.0732
  30. Li 2 (py)  -2.1685 -0.0762 -2.0677  5.1489  0.0000  0.0000  0.0000 -0.2933
  31. Li 2 (pz)   0.0000  0.0000  0.0000  0.0000  0.3867 -0.7391  7.2734  0.0000
  32. Li 2 (d5)   0.0144 -0.0223 -0.0276 -0.0083  0.0000  0.0000  0.0000 -0.0864
  33. Li 2 (d2)   0.0000  0.0000  0.0000  0.0000 -0.0079 -0.1577 -0.1444  0.0000
  34. Li 2 (d3)   0.0000  0.0000  0.0000  0.0000 -0.0045 -0.0910 -0.0834  0.0000
  35. Li 2 (d4)  -0.0057 -0.0091 -0.0314  0.1171  0.0000  0.0000  0.0000 -0.0913
  36. Li 2 (d1)  -0.1237  0.0382 -0.0339  0.0057  0.0000  0.0000  0.0000  1.2727
  37. Li 3 (s)    0.1580  0.0084  0.0594 -0.0221  0.0000  0.0000  0.0000  0.0095
  38. Li 3 (s)   -0.2280 -0.0344 -0.0890  0.0365  0.0000  0.0000  0.0000 -0.0314
  39. Li 3 (px)   0.3249 -0.0102 -0.0549 -0.0071  0.0000  0.0000  0.0000 -0.0056
  40. Li 3 (py)   0.0180  0.0012 -0.0147  0.0206  0.0000  0.0000  0.0000 -0.0087
  41. Li 3 (pz)   0.0000  0.0000  0.0000  0.0000 -0.0008  0.0066 -0.0318  0.0000
  42. Li 3 (s)   -0.1004  0.1496  0.7479 -0.2341  0.0000  0.0000  0.0000  0.1643
  43. Li 3 (px)  -1.1032 -0.0206 -0.0368  0.3379  0.0000  0.0000  0.0000 -0.0968
  44. Li 3 (py)   0.2719  0.1503 -0.1294  0.8509  0.0000  0.0000  0.0000 -0.0154
  45. Li 3 (pz)   0.0000  0.0000  0.0000  0.0000  0.1667  0.0927  0.6266  0.0000
  46. Li 3 (s)   12.1167  0.0321 -1.4316 -0.0322  0.0000  0.0000  0.0000 -0.0736
  47. Li 3 (px)  -4.0052  0.0495  0.3296 -0.0148  0.0000  0.0000  0.0000  0.0289
  48. Li 3 (py)  -0.1864 -0.0415 -0.0007 -0.3230  0.0000  0.0000  0.0000  0.0560
  49. Li 3 (pz)   0.0000  0.0000  0.0000  0.0000  0.0523  0.0269  0.4492  0.0000
  50. Li 3 (d5)  -0.0703 -0.0018 -0.0128  0.0026  0.0000  0.0000  0.0000 -0.0124
  51. Li 3 (d2)   0.0000  0.0000  0.0000  0.0000 -0.0150 -0.0218 -0.1198  0.0000
  52. Li 3 (d3)   0.0000  0.0000  0.0000  0.0000  0.0046 -0.0086  0.0070  0.0000
  53. Li 3 (d4)   0.1280 -0.0109  0.0271 -0.0365  0.0000  0.0000  0.0000 -0.0127
  54. Li 3 (d1)  -0.0999 -0.0201 -0.0029 -0.1417  0.0000  0.0000  0.0000  0.1312
  55. Li 4 (s)    0.0253 -0.0096  0.0455 -0.0146 -0.0373  0.0655 -0.0004 -0.0103
  56. Li 4 (s)   -0.0367  0.0157 -0.0651  0.0212  0.0910 -0.0986 -0.0531  0.0224
  57. Li 4 (px)   0.0376 -0.0032 -0.0051 -0.0079  0.0039  0.0062  0.0578 -0.0007
  58. Li 4 (py)   0.0079 -0.0062 -0.0088 -0.0285  0.0022  0.0036  0.0334 -0.0012
  59. Li 4 (pz)   0.0047 -0.0022 -0.0033 -0.0027 -0.0106 -0.0193 -0.0031 -0.0011
  60. Li 4 (s)    0.0388 -0.0763  0.3973 -0.0224 -0.3823  0.4991  1.1525 -0.1162
  61. Li 4 (px)  -0.5890  0.0983 -0.1586  0.1315  0.1707 -0.5236 -0.5019  0.0795
  62. Li 4 (py)  -0.1315  0.1359 -0.0979  0.4372  0.0986 -0.3023 -0.2898  0.1103
  63. Li 4 (pz)   0.0737  0.0630 -0.1530 -0.0426  0.4692 -0.3748  0.0606  0.0932
  64. Li 4 (s)    1.2098 -0.1281  0.1436 -0.6985 -1.1492  0.0770 -7.8170 -0.0739
  65. Li 4 (px)  -0.2131  0.0149  0.0648  0.2354  0.1761  0.3824  1.5324 -0.0147
  66. Li 4 (py)  -0.2354 -0.0276  0.0092 -0.0587  0.1017  0.2208  0.8847 -0.0232
  67. Li 4 (pz)  -0.4966  0.0258  0.0784  0.2867  0.2351  0.5484  2.1891 -0.0209
  68. Li 4 (d5)  -0.0516  0.0027  0.0053  0.0298 -0.0175 -0.0332 -0.0417 -0.0198
  69. Li 4 (d2)   0.0559 -0.0007  0.0146  0.0124  0.0134  0.0379  0.1390 -0.0246
  70. Li 4 (d3)  -0.0124 -0.0145 -0.0075 -0.0702  0.0077  0.0219  0.0803 -0.0163
  71. Li 4 (d4)   0.0352  0.0006  0.0211  0.0089  0.0021  0.0128  0.0227 -0.0073
  72. Li 4 (d1)   0.0318 -0.0068 -0.0135 -0.0352  0.0037  0.0222  0.0393  0.0042
  73. Li 5 (s)    0.0253 -0.0096  0.0455 -0.0146  0.0373 -0.0655  0.0004 -0.0103
  74. Li 5 (s)   -0.0367  0.0157 -0.0651  0.0212 -0.0910  0.0986  0.0531  0.0224
  75. Li 5 (px)   0.0376 -0.0032 -0.0051 -0.0079 -0.0039 -0.0062 -0.0578 -0.0007
  76. Li 5 (py)   0.0079 -0.0062 -0.0088 -0.0285 -0.0022 -0.0036 -0.0334 -0.0012
  77. Li 5 (pz)  -0.0047  0.0022  0.0033  0.0027 -0.0106 -0.0193 -0.0031  0.0011
  78. Li 5 (s)    0.0388 -0.0763  0.3973 -0.0224  0.3823 -0.4991 -1.1525 -0.1162
  79. Li 5 (px)  -0.5890  0.0983 -0.1586  0.1315 -0.1707  0.5236  0.5019  0.0795
  80. Li 5 (py)  -0.1315  0.1359 -0.0979  0.4372 -0.0986  0.3023  0.2898  0.1103
  81. Li 5 (pz)  -0.0737 -0.0630  0.1530  0.0426  0.4692 -0.3748  0.0606 -0.0932
  82. Li 5 (s)    1.2098 -0.1281  0.1436 -0.6985  1.1492 -0.0770  7.8170 -0.0739
  83. Li 5 (px)  -0.2131  0.0149  0.0648  0.2354 -0.1761 -0.3824 -1.5324 -0.0147
  84. Li 5 (py)  -0.2354 -0.0276  0.0092 -0.0587 -0.1017 -0.2208 -0.8847 -0.0232
  85. Li 5 (pz)   0.4966 -0.0258 -0.0784 -0.2867  0.2351  0.5484  2.1891  0.0209
  86. Li 5 (d5)  -0.0516  0.0027  0.0053  0.0298  0.0175  0.0332  0.0417 -0.0198
  87. Li 5 (d2)  -0.0559  0.0007 -0.0146 -0.0124  0.0134  0.0379  0.1390  0.0246
  88. Li 5 (d3)   0.0124  0.0145  0.0075  0.0702  0.0077  0.0219  0.0803  0.0163
  89. Li 5 (d4)   0.0352  0.0006  0.0211  0.0089 -0.0021 -0.0128 -0.0227 -0.0073
  90. Li 5 (d1)   0.0318 -0.0068 -0.0135 -0.0352 -0.0037 -0.0222 -0.0393  0.0042

          AO        33      34      35      36      37      38      39      40
      ---------- ------- ------- ------- ------- ------- ------- ------- -------
   1. Li 1 (s)    0.0000  0.0000  0.1022  0.0899 -0.0004 -0.0313 -0.0218 -0.0490
   2. Li 1 (s)    0.0000  0.0000 -0.1924 -0.1811 -0.0003  0.0270  0.0761  0.0663
   3. Li 1 (px)   0.0000  0.0000 -0.0322 -0.0316  0.0000 -0.0054 -0.0012  0.0592
   4. Li 1 (py)   0.0000  0.0000 -0.0475 -0.0474  0.0000  0.0073 -0.0231 -0.1457
   5. Li 1 (pz)  -0.0006 -0.0115  0.0000  0.0000  0.0000  0.0000  0.0000  0.0000
   6. Li 1 (s)    0.0000  0.0000  1.1179  1.0221  0.0000 -0.1862 -0.2639  0.0706
   7. Li 1 (px)   0.0000  0.0000 -0.3319 -0.4587  0.0000 -0.0606 -0.4114 -0.4102
   8. Li 1 (py)   0.0000  0.0000 -0.7825 -0.7509  0.0000  0.1105  0.7078  0.6330
   9. Li 1 (pz)   0.0462 -0.1681  0.0000  0.0000  0.0000  0.0000  0.0000  0.0000
  10. Li 1 (s)    0.0000  0.0000 -0.3865 -0.2897  0.0000 -0.0655 -1.3239 -4.6556
  11. Li 1 (px)   0.0000  0.0000  0.1855  0.1704  0.0000  0.0298 -0.1073 -0.6291
  12. Li 1 (py)   0.0000  0.0000  0.2489  0.2507  0.0000 -0.0370  0.3722  1.4206
  13. Li 1 (pz)   0.0078  0.0623  0.0000  0.0000  0.0000  0.0000  0.0000  0.0000
  14. Li 1 (d5)   0.0000  0.0000 -0.0975 -0.0694  0.0000  0.0044  0.0296  0.0286
  15. Li 1 (d2)   0.0457  0.0894  0.0000  0.0000  0.0000  0.0000  0.0000  0.0000
  16. Li 1 (d3)   0.0548  0.1289  0.0000  0.0000  0.0000  0.0000  0.0000  0.0000
  17. Li 1 (d4)   0.0000  0.0000  0.0202 -0.0761  0.0000  0.0040  0.0478  0.0825
  18. Li 1 (d1)   0.0000  0.0000  0.1797  0.1565  0.0000  0.0080  0.0604  0.0698
  19. Li 2 (s)    0.0000  0.0000  0.0640 -0.1181 -0.0004 -0.0313 -0.0218 -0.0490
  20. Li 2 (s)    0.0000  0.0000 -0.1259  0.1824 -0.0003  0.0270  0.0761  0.0663
  21. Li 2 (px)   0.0000  0.0000  0.0586 -0.0571  0.0000 -0.0091  0.0194  0.1557
  22. Li 2 (py)   0.0000  0.0000 -0.0480 -0.0330  0.0000  0.0011  0.0126  0.0216
  23. Li 2 (pz)   0.0278  0.0160  0.0000  0.0000  0.0000  0.0000  0.0000  0.0000
  24. Li 2 (s)    0.0000  0.0000  0.6879 -1.1672  0.0000 -0.1862 -0.2639  0.0706
  25. Li 2 (px)   0.0000  0.0000  1.1245 -0.8624  0.0000 -0.1260 -0.8187 -0.7533
  26. Li 2 (py)   0.0000  0.0000 -0.6203 -0.4979  0.0000 -0.0028  0.0024  0.0387
  27. Li 2 (pz)   0.8087  0.4669  0.0000  0.0000  0.0000  0.0000  0.0000  0.0000
  28. Li 2 (s)    0.0000  0.0000 -0.0384  0.6553  0.0000 -0.0655 -1.3239 -4.6556
  29. Li 2 (px)   0.0000  0.0000 -0.2933  0.3054  0.0000  0.0469 -0.3760 -1.5448
  30. Li 2 (py)   0.0000  0.0000  0.2655  0.1763  0.0000 -0.0074 -0.0932 -0.1655
  31. Li 2 (pz)  -0.1160 -0.0670  0.0000  0.0000  0.0000  0.0000  0.0000  0.0000
  32. Li 2 (d5)   0.0000  0.0000 -0.0499  1.2910  0.0000  0.0044  0.0296  0.0286
  33. Li 2 (d2)   1.1952  0.0773  0.0000  0.0000  0.0000  0.0000  0.0000  0.0000
  34. Li 2 (d3)   0.0773  1.1060  0.0000  0.0000  0.0000  0.0000  0.0000  0.0000
  35. Li 2 (d4)   0.0000  0.0000  1.3781 -0.0499  0.0000 -0.0090 -0.0762 -0.1017
  36. Li 2 (d1)   0.0000  0.0000 -0.0913 -0.0864  0.0000  0.0006 -0.0112 -0.0365
  37. Li 3 (s)    0.0000  0.0000 -0.1880  0.0899  0.6150 -0.0168 -0.4176 -1.4724
  38. Li 3 (s)    0.0000  0.0000  0.3303 -0.1811  0.4279 -0.3372  0.1815  1.6632
  39. Li 3 (px)   0.0000  0.0000  0.1049 -0.0568  0.0000 -0.0113 -0.0058  0.1138
  40. Li 3 (py)   0.0000  0.0000 -0.0067 -0.0036  0.0000  0.0065  0.0034 -0.0657
  41. Li 3 (pz)  -0.0103  0.0053  0.0000  0.0000  0.0000  0.0000  0.0000  0.0000
  42. Li 3 (s)    0.0000  0.0000 -1.9512  1.0221  0.0168  1.3509  2.7213 -0.7061
  43. Li 3 (px)   0.0000  0.0000  1.5197 -0.8796  0.0000 -0.1039 -0.7888 -0.9262
  44. Li 3 (py)   0.0000  0.0000 -0.2343 -0.0218  0.0000  0.0600  0.4554  0.5348
  45. Li 3 (pz)  -0.1225  0.1241  0.0000  0.0000  0.0000  0.0000  0.0000  0.0000
  46. Li 3 (s)    0.0000  0.0000  0.6455 -0.2897 -0.0074  0.0616  0.2071 10.2004
  47. Li 3 (px)   0.0000  0.0000 -0.5666  0.3023  0.0000  0.0589 -0.5645 -2.1870
  48. Li 3 (py)   0.0000  0.0000  0.0246  0.0222  0.0000 -0.0340  0.3259  1.2627
  49. Li 3 (pz)   0.0578 -0.0244  0.0000  0.0000  0.0000  0.0000  0.0000  0.0000
  50. Li 3 (d5)   0.0000  0.0000  0.1736 -0.0694  0.0000 -0.0062 -0.0597 -0.0893
  51. Li 3 (d2)   0.1705 -0.0173  0.0000  0.0000  0.0000  0.0000  0.0000  0.0000
  52. Li 3 (d3)   0.0173  0.0041  0.0000  0.0000  0.0000  0.0000  0.0000  0.0000
  53. Li 3 (d4)   0.0000  0.0000 -0.3130  0.1736  0.0000  0.0027  0.0273  0.0421
  54. Li 3 (d1)   0.0000  0.0000  0.0127  0.0124  0.0000 -0.0047 -0.0472 -0.0728
  55. Li 4 (s)   -0.0254 -0.0147 -0.0059 -0.0212 -0.0001 -0.0131  0.0332  0.0081
  56. Li 4 (s)    0.0841  0.0486  0.0129  0.0961 -0.0001  0.0196 -0.0437 -0.0259
  57. Li 4 (px)  -0.0032 -0.0027 -0.0012 -0.0034  0.0000  0.0005  0.0027  0.0020
  58. Li 4 (py)  -0.0027 -0.0001  0.0007 -0.0019  0.0000 -0.0003 -0.0016 -0.0012
  59. Li 4 (pz)  -0.0072 -0.0042 -0.0007 -0.0090  0.0000 -0.0005 -0.0071 -0.0133
  60. Li 4 (s)   -0.4482 -0.2588 -0.0671 -0.4755  0.0000 -0.1291  0.2553  0.2141
  61. Li 4 (px)   0.1979  0.1608  0.1103  0.1424  0.0000 -0.0184 -0.1456 -0.1802
  62. Li 4 (py)   0.1608  0.0122 -0.0478  0.0822  0.0000  0.0106  0.0840  0.1041
  63. Li 4 (pz)   0.4537  0.2620  0.0538  0.5343  0.0000  0.0143  0.0119 -0.1316
  64. Li 4 (s)    0.0426  0.0246 -0.0427 -0.0312  0.0000  0.0283  0.2850 -0.3028
  65. Li 4 (px)  -0.0539 -0.0448 -0.0232 -0.0515  0.0000  0.0053 -0.0879 -0.2958
  66. Li 4 (py)  -0.0448 -0.0021  0.0121 -0.0297  0.0000 -0.0030  0.0507  0.1708
  67. Li 4 (pz)  -0.1217 -0.0703 -0.0121 -0.1498  0.0000 -0.0054  0.0293  0.1407
  68. Li 4 (d5)  -0.0653 -0.0377 -0.0114 -0.0525  0.0000 -0.0005  0.0087  0.0294
  69. Li 4 (d2)  -0.0677 -0.0495 -0.0163 -0.0589  0.0000  0.0014  0.0119  0.0157
  70. Li 4 (d3)  -0.0495 -0.0105 -0.0058 -0.0340  0.0000 -0.0008 -0.0069 -0.0091
  71. Li 4 (d4)   0.0031 -0.0322  0.0127 -0.0135  0.0000 -0.0003 -0.0043 -0.0080
  72. Li 4 (d1)  -0.0286  0.0031 -0.0073 -0.0234  0.0000  0.0005  0.0074  0.0138
  73. Li 5 (s)    0.0254  0.0147 -0.0059 -0.0212 -0.0001 -0.0131  0.0332  0.0081
  74. Li 5 (s)   -0.0841 -0.0486  0.0129  0.0961 -0.0001  0.0196 -0.0437 -0.0259
  75. Li 5 (px)   0.0032  0.0027 -0.0012 -0.0034  0.0000  0.0005  0.0027  0.0020
  76. Li 5 (py)   0.0027  0.0001  0.0007 -0.0019  0.0000 -0.0003 -0.0016 -0.0012
  77. Li 5 (pz)  -0.0072 -0.0042  0.0007  0.0090  0.0000  0.0005  0.0071  0.0133
  78. Li 5 (s)    0.4482  0.2588 -0.0671 -0.4755  0.0000 -0.1291  0.2553  0.2141
  79. Li 5 (px)  -0.1979 -0.1608  0.1103  0.1424  0.0000 -0.0184 -0.1456 -0.1802
  80. Li 5 (py)  -0.1608 -0.0122 -0.0478  0.0822  0.0000  0.0106  0.0840  0.1041
  81. Li 5 (pz)   0.4537  0.2620 -0.0538 -0.5343  0.0000 -0.0143 -0.0119  0.1316
  82. Li 5 (s)   -0.0426 -0.0246 -0.0427 -0.0312  0.0000  0.0283  0.2850 -0.3028
  83. Li 5 (px)   0.0539  0.0448 -0.0232 -0.0515  0.0000  0.0053 -0.0879 -0.2958
  84. Li 5 (py)   0.0448  0.0021  0.0121 -0.0297  0.0000 -0.0030  0.0507  0.1708
  85. Li 5 (pz)  -0.1217 -0.0703  0.0121  0.1498  0.0000  0.0054 -0.0293 -0.1407
  86. Li 5 (d5)   0.0653  0.0377 -0.0114 -0.0525  0.0000 -0.0005  0.0087  0.0294
  87. Li 5 (d2)  -0.0677 -0.0495  0.0163  0.0589  0.0000 -0.0014 -0.0119 -0.0157
  88. Li 5 (d3)  -0.0495 -0.0105  0.0058  0.0340  0.0000  0.0008  0.0069  0.0091
  89. Li 5 (d4)  -0.0031  0.0322  0.0127 -0.0135  0.0000 -0.0003 -0.0043 -0.0080
  90. Li 5 (d1)   0.0286 -0.0031 -0.0073 -0.0234  0.0000  0.0005  0.0074  0.0138

          AO        41      42      43      44      45      46      47      48
      ---------- ------- ------- ------- ------- ------- ------- ------- -------
   1. Li 1 (s)    0.0752 -0.1788  0.0982 -0.1471  0.1909 -0.1258  0.0000  0.0000
   2. Li 1 (s)   -0.0884  0.2039 -0.1456  0.2218 -0.1752  0.1792  0.0000  0.0000
   3. Li 1 (px)   0.0067  0.0247 -0.0767 -0.0198 -0.1231  0.1613  0.0000  0.0000
   4. Li 1 (py)  -0.0039 -0.0340  0.1505  0.0255  0.1392 -0.2277  0.0000  0.0000
   5. Li 1 (pz)   0.0000  0.0000  0.0000  0.0000  0.0000  0.0000 -0.0008  0.0066
   6. Li 1 (s)    0.5005 -1.1097  0.1525 -1.1661  0.4262  0.2040  0.0000  0.0000
   7. Li 1 (px)   0.4138 -0.3567  0.9425 -0.4769  0.3569  0.1792  0.0000  0.0000
   8. Li 1 (py)  -0.4463  0.2415 -0.4306  0.9589 -0.4839  1.0116  0.0000  0.0000
   9. Li 1 (pz)   0.0000  0.0000  0.0000  0.0000  0.0000  0.0000  0.1667  0.0927
  10. Li 1 (s)    0.7092 -0.6129  6.0862 -1.2926  3.9248-10.4773  0.0000  0.0000
  11. Li 1 (px)   0.0345 -0.1093  0.8334 -0.0820  0.5177 -2.0177  0.0000  0.0000
  12. Li 1 (py)  -0.1525 -0.0206 -1.8164  0.1369 -0.5359  2.8488  0.0000  0.0000
  13. Li 1 (pz)   0.0000  0.0000  0.0000  0.0000  0.0000  0.0000  0.0523  0.0269
  14. Li 1 (d5)  -0.0227 -0.0187 -0.0374  0.0428  0.0580  0.0595  0.0000  0.0000
  15. Li 1 (d2)   0.0000  0.0000  0.0000  0.0000  0.0000  0.0000  0.0035  0.0183
  16. Li 1 (d3)   0.0000  0.0000  0.0000  0.0000  0.0000  0.0000 -0.0153 -0.0146
  17. Li 1 (d4)  -0.0181 -0.0366  0.0152  0.0552  0.0956  0.1826  0.0000  0.0000
  18. Li 1 (d1)  -0.0518 -0.0348 -0.1192  0.0507  0.1043  0.0015  0.0000  0.0000
  19. Li 2 (s)    0.1650 -0.2547  0.1580  0.0084  0.0594 -0.0221  0.0000  0.0000
  20. Li 2 (s)   -0.2363  0.2537 -0.2280 -0.0344 -0.0890  0.0365  0.0000  0.0000
  21. Li 2 (px)   0.0310  0.1786 -0.3249  0.0102  0.0549  0.0071  0.0000  0.0000
  22. Li 2 (py)  -0.0057 -0.0342  0.0180  0.0012 -0.0147  0.0206  0.0000  0.0000
  23. Li 2 (pz)   0.0000  0.0000  0.0000  0.0000  0.0000  0.0000 -0.0008  0.0066
  24. Li 2 (s)    1.2601 -0.9240 -0.1004  0.1496  0.7479 -0.2341  0.0000  0.0000
  25. Li 2 (px)   1.2224 -0.7112  1.1032  0.0206  0.0368 -0.3379  0.0000  0.0000
  26. Li 2 (py)  -0.0101  0.1523  0.2719  0.1503 -0.1294  0.8509  0.0000  0.0000
  27. Li 2 (pz)   0.0000  0.0000  0.0000  0.0000  0.0000  0.0000  0.1667  0.0927
  28. Li 2 (s)    1.4740 -3.7054 12.1167  0.0321 -1.4316 -0.0322  0.0000  0.0000
  29. Li 2 (px)   0.2128 -0.6446  4.0052 -0.0495 -0.3296  0.0148  0.0000  0.0000
  30. Li 2 (py)   0.0210  0.2087 -0.1864 -0.0415 -0.0007 -0.3230  0.0000  0.0000
  31. Li 2 (pz)   0.0000  0.0000  0.0000  0.0000  0.0000  0.0000  0.0523  0.0269
  32. Li 2 (d5)  -0.0484 -0.0596 -0.0703 -0.0018 -0.0128  0.0026  0.0000  0.0000
  33. Li 2 (d2)   0.0000  0.0000  0.0000  0.0000  0.0000  0.0000  0.0150  0.0218
  34. Li 2 (d3)   0.0000  0.0000  0.0000  0.0000  0.0000  0.0000  0.0046 -0.0086
  35. Li 2 (d4)   0.0889  0.1439  0.1280 -0.0109  0.0271 -0.0365  0.0000  0.0000
  36. Li 2 (d1)   0.0144  0.0337  0.0999  0.0201  0.0029  0.1417  0.0000  0.0000
  37. Li 3 (s)   -0.1475  0.1715 -0.1341  0.0852 -0.0990  0.0774  0.0000  0.0000
  38. Li 3 (s)    0.2801 -0.2119  0.0624 -0.1617  0.1224 -0.0360  0.0000  0.0000
  39. Li 3 (px)   0.3466  0.9972  0.7117 -0.0093 -0.1079  0.1544  0.0000  0.0000
  40. Li 3 (py)  -0.0093 -0.1079  0.1544  0.3359  0.8727  0.8899  0.0000  0.0000
  41. Li 3 (pz)   0.0000  0.0000  0.0000  0.0000  0.0000  0.0000  0.3209  0.7795
  42. Li 3 (s)   -1.3409 -0.2797  1.1758  0.7741  0.1615 -0.6789  0.0000  0.0000
  43. Li 3 (px)   2.3625 -1.5933 -0.3397 -0.5207  0.6721 -0.9464  0.0000  0.0000
  44. Li 3 (py)  -0.5207  0.6721 -0.9464  1.7612 -0.8171 -1.4325  0.0000  0.0000
  45. Li 3 (pz)   0.0000  0.0000  0.0000  0.0000  0.0000  0.0000  1.4830 -1.0496
  46. Li 3 (s)   -2.9479  6.2909-20.9232  1.7020 -3.6320 12.0800  0.0000  0.0000
  47. Li 3 (px)   0.1243 -2.5394  7.6529 -0.1736  0.4084 -2.1685  0.0000  0.0000
  48. Li 3 (py)  -0.1736  0.4084 -2.1685 -0.0762 -2.0677  5.1489  0.0000  0.0000
  49. Li 3 (pz)   0.0000  0.0000  0.0000  0.0000  0.0000  0.0000  0.3867 -0.7391
  50. Li 3 (d5)   0.0385  0.0478  0.0144 -0.0223 -0.0276 -0.0083  0.0000  0.0000
  51. Li 3 (d2)   0.0000  0.0000  0.0000  0.0000  0.0000  0.0000  0.0079  0.1577
  52. Li 3 (d3)   0.0000  0.0000  0.0000  0.0000  0.0000  0.0000 -0.0045 -0.0910
  53. Li 3 (d4)  -0.0382  0.0339 -0.0057 -0.0091 -0.0314  0.1171  0.0000  0.0000
  54. Li 3 (d1)   0.0350 -0.0705  0.1237 -0.0382  0.0339 -0.0057  0.0000  0.0000
  55. Li 4 (s)    0.0167 -0.0787  0.0253 -0.0096  0.0455 -0.0146 -0.0373  0.0655
  56. Li 4 (s)   -0.0272  0.1128 -0.0367  0.0157 -0.0651  0.0212  0.0910 -0.0986
  57. Li 4 (px)  -0.0098 -0.0147 -0.0376  0.0032  0.0051  0.0079 -0.0039 -0.0062
  58. Li 4 (py)   0.0032  0.0051  0.0079 -0.0062 -0.0088 -0.0285  0.0022  0.0036
  59. Li 4 (pz)   0.0037  0.0057  0.0047 -0.0022 -0.0033 -0.0027 -0.0106 -0.0193
  60. Li 4 (s)    0.1321 -0.6881  0.0388 -0.0763  0.3973 -0.0224 -0.3823  0.4991
  61. Li 4 (px)   0.2494 -0.2810  0.5890 -0.0983  0.1586 -0.1315 -0.1707  0.5236
  62. Li 4 (py)  -0.0983  0.1586 -0.1315  0.1359 -0.0979  0.4372  0.0986 -0.3023
  63. Li 4 (pz)  -0.1090  0.2649  0.0737  0.0630 -0.1530 -0.0426  0.4692 -0.3748
  64. Li 4 (s)    0.2218 -0.2488  1.2098 -0.1281  0.1436 -0.6985 -1.1492  0.0770
  65. Li 4 (px)  -0.0104  0.0841  0.2131 -0.0149 -0.0648 -0.2354 -0.1761 -0.3824
  66. Li 4 (py)  -0.0149 -0.0648 -0.2354 -0.0276  0.0092 -0.0587  0.1017  0.2208
  67. Li 4 (pz)  -0.0446 -0.1358 -0.4966  0.0258  0.0784  0.2867  0.2351  0.5484
  68. Li 4 (d5)  -0.0047 -0.0092 -0.0516  0.0027  0.0053  0.0298 -0.0175 -0.0332
  69. Li 4 (d2)  -0.0153  0.0094 -0.0559  0.0007 -0.0146 -0.0124 -0.0134 -0.0379
  70. Li 4 (d3)   0.0007 -0.0146 -0.0124 -0.0145 -0.0075 -0.0702  0.0077  0.0219
  71. Li 4 (d4)   0.0068  0.0135  0.0352  0.0006  0.0211  0.0089  0.0021  0.0128
  72. Li 4 (d1)  -0.0073  0.0055 -0.0318  0.0068  0.0135  0.0352 -0.0037 -0.0222
  73. Li 5 (s)    0.0167 -0.0787  0.0253 -0.0096  0.0455 -0.0146  0.0373 -0.0655
  74. Li 5 (s)   -0.0272  0.1128 -0.0367  0.0157 -0.0651  0.0212 -0.0910  0.0986
  75. Li 5 (px)  -0.0098 -0.0147 -0.0376  0.0032  0.0051  0.0079  0.0039  0.0062
  76. Li 5 (py)   0.0032  0.0051  0.0079 -0.0062 -0.0088 -0.0285 -0.0022 -0.0036
  77. Li 5 (pz)  -0.0037 -0.0057 -0.0047  0.0022  0.0033  0.0027 -0.0106 -0.0193
  78. Li 5 (s)    0.1321 -0.6881  0.0388 -0.0763  0.3973 -0.0224  0.3823 -0.4991
  79. Li 5 (px)   0.2494 -0.2810  0.5890 -0.0983  0.1586 -0.1315  0.1707 -0.5236
  80. Li 5 (py)  -0.0983  0.1586 -0.1315  0.1359 -0.0979  0.4372 -0.0986  0.3023
  81. Li 5 (pz)   0.1090 -0.2649 -0.0737 -0.0630  0.1530  0.0426  0.4692 -0.3748
  82. Li 5 (s)    0.2218 -0.2488  1.2098 -0.1281  0.1436 -0.6985  1.1492 -0.0770
  83. Li 5 (px)  -0.0104  0.0841  0.2131 -0.0149 -0.0648 -0.2354  0.1761  0.3824
  84. Li 5 (py)  -0.0149 -0.0648 -0.2354 -0.0276  0.0092 -0.0587 -0.1017 -0.2208
  85. Li 5 (pz)   0.0446  0.1358  0.4966 -0.0258 -0.0784 -0.2867  0.2351  0.5484
  86. Li 5 (d5)  -0.0047 -0.0092 -0.0516  0.0027  0.0053  0.0298  0.0175  0.0332
  87. Li 5 (d2)   0.0153 -0.0094  0.0559 -0.0007  0.0146  0.0124 -0.0134 -0.0379
  88. Li 5 (d3)  -0.0007  0.0146  0.0124  0.0145  0.0075  0.0702  0.0077  0.0219
  89. Li 5 (d4)   0.0068  0.0135  0.0352  0.0006  0.0211  0.0089 -0.0021 -0.0128
  90. Li 5 (d1)  -0.0073  0.0055 -0.0318  0.0068  0.0135  0.0352  0.0037  0.0222

          AO        49      50      51      52      53      54      55      56
      ---------- ------- ------- ------- ------- ------- ------- ------- -------
   1. Li 1 (s)    0.0000  0.1580  0.0000  0.0000  0.1022  0.0899 -0.0001 -0.0089
   2. Li 1 (s)    0.0000 -0.2703  0.0000  0.0000 -0.1924 -0.1811 -0.0001  0.0207
   3. Li 1 (px)   0.0000  0.0353  0.0000  0.0000  0.0322  0.0316  0.0000  0.0000
   4. Li 1 (py)   0.0000 -0.0813  0.0000  0.0000 -0.0475 -0.0474  0.0000 -0.0009
   5. Li 1 (pz)  -0.0318  0.0000  0.0006 -0.0115  0.0000  0.0000  0.0000  0.0005
   6. Li 1 (s)    0.0000  1.6076  0.0000  0.0000  1.1179  1.0221  0.0000 -0.0878
   7. Li 1 (px)   0.0000  0.4515  0.0000  0.0000  0.3319  0.4587  0.0000  0.0000
   8. Li 1 (py)   0.0000 -1.2031  0.0000  0.0000 -0.7825 -0.7509  0.0000  0.0008
   9. Li 1 (pz)   0.6266  0.0000 -0.0462 -0.1681  0.0000  0.0000  0.0000 -0.0091
  10. Li 1 (s)    0.0000 -0.5222  0.0000  0.0000 -0.3865 -0.2897  0.0000 -0.1137
  11. Li 1 (px)   0.0000 -0.1954  0.0000  0.0000 -0.1855 -0.1704  0.0000  0.0000
  12. Li 1 (py)   0.0000  0.4371  0.0000  0.0000  0.2489  0.2507  0.0000  0.0062
  13. Li 1 (pz)   0.4492  0.0000 -0.0078  0.0623  0.0000  0.0000  0.0000 -0.0112
  14. Li 1 (d5)   0.0000 -0.1441  0.0000  0.0000 -0.0975 -0.0694  0.0000  0.0006
  15. Li 1 (d2)   0.0539  0.0000  0.0457 -0.0894  0.0000  0.0000  0.0000  0.0000
  16. Li 1 (d3)  -0.1073  0.0000 -0.0548  0.1289  0.0000  0.0000  0.0000  0.0001
  17. Li 1 (d4)   0.0000 -0.2050  0.0000  0.0000  0.0202 -0.0761  0.0000  0.0003
  18. Li 1 (d1)   0.0000 -0.2019  0.0000  0.0000 -0.1797 -0.1565  0.0000  0.0000
  19. Li 2 (s)    0.0000 -0.0095  0.0000  0.0000 -0.1880  0.0899 -0.0001 -0.0089
  20. Li 2 (s)    0.0000  0.0314  0.0000  0.0000  0.3303 -0.1811 -0.0001  0.0207
  21. Li 2 (px)   0.0000 -0.0056  0.0000  0.0000 -0.1049  0.0568  0.0000  0.0008
  22. Li 2 (py)   0.0000  0.0087  0.0000  0.0000 -0.0067 -0.0036  0.0000  0.0005
  23. Li 2 (pz)  -0.0318  0.0000  0.0103  0.0053  0.0000  0.0000  0.0000  0.0005
  24. Li 2 (s)    0.0000 -0.1643  0.0000  0.0000 -1.9512  1.0221  0.0000 -0.0878
  25. Li 2 (px)   0.0000 -0.0968  0.0000  0.0000 -1.5197  0.8796  0.0000 -0.0007
  26. Li 2 (py)   0.0000  0.0154  0.0000  0.0000 -0.2343 -0.0218  0.0000 -0.0004
  27. Li 2 (pz)   0.6266  0.0000  0.1225  0.1241  0.0000  0.0000  0.0000 -0.0091
  28. Li 2 (s)    0.0000  0.0736  0.0000  0.0000  0.6455 -0.2897  0.0000 -0.1137
  29. Li 2 (px)   0.0000  0.0289  0.0000  0.0000  0.5666 -0.3023  0.0000 -0.0053
  30. Li 2 (py)   0.0000 -0.0560  0.0000  0.0000  0.0246  0.0222  0.0000 -0.0031
  31. Li 2 (pz)   0.4492  0.0000 -0.0578 -0.0244  0.0000  0.0000  0.0000 -0.0112
  32. Li 2 (d5)   0.0000  0.0124  0.0000  0.0000  0.1736 -0.0694  0.0000  0.0006
  33. Li 2 (d2)   0.1198  0.0000  0.1705  0.0173  0.0000  0.0000  0.0000 -0.0001
  34. Li 2 (d3)   0.0070  0.0000 -0.0173  0.0041  0.0000  0.0000  0.0000 -0.0001
  35. Li 2 (d4)   0.0000  0.0127  0.0000  0.0000 -0.3130  0.1736  0.0000 -0.0001
  36. Li 2 (d1)   0.0000  0.1312  0.0000  0.0000 -0.0127 -0.0124  0.0000 -0.0003
  37. Li 3 (s)    0.0000 -0.1108  0.0000  0.0000  0.0640 -0.1181 -0.0001 -0.0089
  38. Li 3 (s)    0.0000  0.2181  0.0000  0.0000 -0.1259  0.1824 -0.0001  0.0207
  39. Li 3 (px)   0.0000  0.0196  0.0000  0.0000 -0.0586  0.0571  0.0000 -0.0008
  40. Li 3 (py)   0.0000 -0.0586  0.0000  0.0000 -0.0480 -0.0330  0.0000  0.0005
  41. Li 3 (pz)   0.8807  0.0000 -0.0278  0.0160  0.0000  0.0000  0.0000  0.0005
  42. Li 3 (s)    0.0000 -1.1916  0.0000  0.0000  0.6879 -1.1672  0.0000 -0.0878
  43. Li 3 (px)   0.0000  0.6782  0.0000  0.0000 -1.1245  0.8624  0.0000  0.0007
  44. Li 3 (py)   0.0000 -1.1245  0.0000  0.0000 -0.6203 -0.4979  0.0000 -0.0004
  45. Li 3 (pz)  -2.6146  0.0000 -0.8087  0.4669  0.0000  0.0000  0.0000 -0.0091
  46. Li 3 (s)    0.0000  0.0666  0.0000  0.0000 -0.0384  0.6553  0.0000 -0.1137
  47. Li 3 (px)   0.0000 -0.0732  0.0000  0.0000  0.2933 -0.3054  0.0000  0.0053
  48. Li 3 (py)   0.0000  0.2933  0.0000  0.0000  0.2655  0.1763  0.0000 -0.0031
  49. Li 3 (pz)   7.2734  0.0000  0.1160 -0.0670  0.0000  0.0000  0.0000 -0.0112
  50. Li 3 (d5)   0.0000  0.0864  0.0000  0.0000 -0.0499  1.2910  0.0000  0.0006
  51. Li 3 (d2)   0.1444  0.0000  1.1952 -0.0773  0.0000  0.0000  0.0000  0.0001
  52. Li 3 (d3)  -0.0834  0.0000 -0.0773  1.1060  0.0000  0.0000  0.0000 -0.0001
  53. Li 3 (d4)   0.0000  0.0913  0.0000  0.0000  1.3781 -0.0499  0.0000 -0.0001
  54. Li 3 (d1)   0.0000  1.2727  0.0000  0.0000  0.0913  0.0864  0.0000  0.0003
  55. Li 4 (s)   -0.0004  0.0103  0.0254 -0.0147 -0.0059 -0.0212  0.6150 -0.0905
  56. Li 4 (s)   -0.0531 -0.0224 -0.0841  0.0486  0.0129  0.0961  0.4274 -0.2348
  57. Li 4 (px)  -0.0578 -0.0007 -0.0032  0.0027  0.0012  0.0034  0.0000  0.0000
  58. Li 4 (py)   0.0334  0.0012  0.0027 -0.0001  0.0007 -0.0019  0.0000  0.0000
  59. Li 4 (pz)  -0.0031  0.0011  0.0072 -0.0042 -0.0007 -0.0090  0.0000 -0.0012
  60. Li 4 (s)    1.1525  0.1162  0.4482 -0.2588 -0.0671 -0.4755  0.0188  1.0202
  61. Li 4 (px)   0.5019  0.0795  0.1979 -0.1608 -0.1103 -0.1424  0.0000  0.0000
  62. Li 4 (py)  -0.2898 -0.1103 -0.1608  0.0122 -0.0478  0.0822  0.0000  0.0000
  63. Li 4 (pz)   0.0606 -0.0932 -0.4537  0.2620  0.0538  0.5343  0.0000  0.0045
  64. Li 4 (s)   -7.8170  0.0739 -0.0426  0.0246 -0.0427 -0.0312 -0.0079  0.3130
  65. Li 4 (px)  -1.5324 -0.0147 -0.0539  0.0448  0.0232  0.0515  0.0000  0.0000
  66. Li 4 (py)   0.8847  0.0232  0.0448 -0.0021  0.0121 -0.0297  0.0000  0.0000
  67. Li 4 (pz)   2.1891  0.0209  0.1217 -0.0703 -0.0121 -0.1498  0.0000 -0.0300
  68. Li 4 (d5)  -0.0417  0.0198  0.0653 -0.0377 -0.0114 -0.0525  0.0000 -0.0003
  69. Li 4 (d2)  -0.1390 -0.0246 -0.0677  0.0495  0.0163  0.0589  0.0000  0.0000
  70. Li 4 (d3)   0.0803  0.0163  0.0495 -0.0105 -0.0058 -0.0340  0.0000  0.0000
  71. Li 4 (d4)   0.0227  0.0073 -0.0031 -0.0322  0.0127 -0.0135  0.0000  0.0000
  72. Li 4 (d1)  -0.0393  0.0042 -0.0286 -0.0031  0.0073  0.0234  0.0000  0.0000
  73. Li 5 (s)    0.0004  0.0103 -0.0254  0.0147 -0.0059 -0.0212  0.0001  0.0086
  74. Li 5 (s)    0.0531 -0.0224  0.0841 -0.0486  0.0129  0.0961  0.0000 -0.0211
  75. Li 5 (px)   0.0578 -0.0007  0.0032 -0.0027  0.0012  0.0034  0.0000  0.0000
  76. Li 5 (py)  -0.0334  0.0012 -0.0027  0.0001  0.0007 -0.0019  0.0000  0.0000
  77. Li 5 (pz)  -0.0031 -0.0011  0.0072 -0.0042  0.0007  0.0090  0.0000  0.0003
  78. Li 5 (s)   -1.1525  0.1162 -0.4482  0.2588 -0.0671 -0.4755  0.0000  0.1162
  79. Li 5 (px)  -0.5019  0.0795 -0.1979  0.1608 -0.1103 -0.1424  0.0000  0.0000
  80. Li 5 (py)   0.2898 -0.1103  0.1608 -0.0122 -0.0478  0.0822  0.0000  0.0000
  81. Li 5 (pz)   0.0606  0.0932 -0.4537  0.2620 -0.0538 -0.5343  0.0000 -0.0126
  82. Li 5 (s)    7.8170  0.0739  0.0426 -0.0246 -0.0427 -0.0312  0.0000  0.0018
  83. Li 5 (px)   1.5324 -0.0147  0.0539 -0.0448  0.0232  0.0515  0.0000  0.0000
  84. Li 5 (py)  -0.8847  0.0232 -0.0448  0.0021  0.0121 -0.0297  0.0000  0.0000
  85. Li 5 (pz)   2.1891 -0.0209  0.1217 -0.0703  0.0121  0.1498  0.0000 -0.0043
  86. Li 5 (d5)   0.0417  0.0198 -0.0653  0.0377 -0.0114 -0.0525  0.0000 -0.0005
  87. Li 5 (d2)  -0.1390  0.0246 -0.0677  0.0495 -0.0163 -0.0589  0.0000  0.0000
  88. Li 5 (d3)   0.0803 -0.0163  0.0495 -0.0105  0.0058  0.0340  0.0000  0.0000
  89. Li 5 (d4)  -0.0227  0.0073  0.0031  0.0322  0.0127 -0.0135  0.0000  0.0000
  90. Li 5 (d1)   0.0393  0.0042  0.0286  0.0031  0.0073  0.0234  0.0000  0.0000

          AO        57      58      59      60      61      62      63      64
      ---------- ------- ------- ------- ------- ------- ------- ------- -------
   1. Li 1 (s)   -0.0043  0.0158  0.0000  0.0000  0.0000 -0.0894  0.0553  0.1304
   2. Li 1 (s)   -0.0124 -0.0304  0.0000  0.0000  0.0000  0.1478 -0.0410 -0.1341
   3. Li 1 (px)   0.0000  0.0000  0.0118  0.0206 -0.0356  0.0000  0.0000  0.0000
   4. Li 1 (py)  -0.0040 -0.0400  0.0000  0.0000  0.0000 -0.0135  0.0900  0.1141
   5. Li 1 (pz)   0.0252  0.0589  0.0000  0.0000  0.0000  0.0598 -0.0822 -0.3125
   6. Li 1 (s)    0.1650  0.3331  0.0000  0.0000  0.0000 -0.5456 -0.1324 -0.0151
   7. Li 1 (px)   0.0000  0.0000  0.1570 -0.1417 -0.4475  0.0000  0.0000  0.0000
   8. Li 1 (py)  -0.0002  0.0297  0.0000  0.0000  0.0000  0.5901 -0.3405 -0.9387
   9. Li 1 (pz)   0.1542 -0.0845  0.0000  0.0000  0.0000 -0.4350  0.0352 -0.1283
  10. Li 1 (s)   -0.7627 -0.8429  0.0000  0.0000  0.0000 -1.5715  4.5308  5.0290
  11. Li 1 (px)   0.0000  0.0000 -0.0738 -0.2263  0.2195  0.0000  0.0000  0.0000
  12. Li 1 (py)   0.0263  0.2657  0.0000  0.0000  0.0000  0.0726 -1.2018 -0.6749
  13. Li 1 (pz)  -0.1645 -0.6684  0.0000  0.0000  0.0000 -0.3657  1.1252  1.8980
  14. Li 1 (d5)   0.0058  0.0325  0.0000  0.0000  0.0000  0.0224  0.0400 -0.1048
  15. Li 1 (d2)   0.0000  0.0000  0.0045  0.0543 -0.0232  0.0000  0.0000  0.0000
  16. Li 1 (d3)  -0.0076 -0.0072  0.0000  0.0000  0.0000  0.0239  0.0534 -0.0264
  17. Li 1 (d4)   0.0015  0.0133  0.0000  0.0000  0.0000  0.0326  0.0176 -0.0891
  18. Li 1 (d1)   0.0000  0.0000 -0.0200 -0.0286  0.0479  0.0000  0.0000  0.0000
  19. Li 2 (s)   -0.0043  0.0158  0.0775 -0.0479 -0.1129  0.0447 -0.0277 -0.0652
  20. Li 2 (s)   -0.0124 -0.0304 -0.1280  0.0355  0.1161 -0.0739  0.0205  0.0670
  21. Li 2 (px)   0.0035  0.0347 -0.0072  0.0727  0.0767 -0.0110  0.0301  0.0648
  22. Li 2 (py)   0.0020  0.0200 -0.0110  0.0301  0.0648  0.0054  0.0379  0.0018
  23. Li 2 (pz)   0.0252  0.0589 -0.0518  0.0712  0.2706 -0.0299  0.0411  0.1563
  24. Li 2 (s)    0.1650  0.3331  0.4725  0.1146  0.0131  0.2728  0.0662  0.0076
  25. Li 2 (px)   0.0001 -0.0257  0.4818 -0.2908 -0.8159  0.1875 -0.0861 -0.2127
  26. Li 2 (py)   0.0001 -0.0149  0.1875 -0.0861 -0.2127  0.2653 -0.1914 -0.5703
  27. Li 2 (pz)   0.1542 -0.0845  0.3767 -0.0305  0.1111  0.2175 -0.0176  0.0641
  28. Li 2 (s)   -0.7627 -0.8429  1.3609 -3.9238 -4.3553  0.7857 -2.2654 -2.5145
  29. Li 2 (px)  -0.0228 -0.2301  0.0360 -0.9579 -0.4513  0.0634 -0.4224 -0.3873
  30. Li 2 (py)  -0.0131 -0.1329  0.0634 -0.4224 -0.3873 -0.0372 -0.4702 -0.0041
  31. Li 2 (pz)  -0.1645 -0.6684  0.3167 -0.9745 -1.6438  0.1828 -0.5626 -0.9490
  32. Li 2 (d5)   0.0058  0.0325 -0.0194 -0.0347  0.0908 -0.0112 -0.0200  0.0524
  33. Li 2 (d2)   0.0066  0.0063  0.0191  0.0536 -0.0256  0.0084 -0.0004 -0.0014
  34. Li 2 (d3)   0.0038  0.0036  0.0084 -0.0004 -0.0014  0.0094  0.0540 -0.0240
  35. Li 2 (d4)  -0.0008 -0.0067  0.0227  0.0200 -0.0593 -0.0068 -0.0171  0.0136
  36. Li 2 (d1)  -0.0013 -0.0115  0.0194  0.0060 -0.0549  0.0227  0.0200 -0.0593
  37. Li 3 (s)   -0.0043  0.0158 -0.0775  0.0479  0.1129  0.0447 -0.0277 -0.0652
  38. Li 3 (s)   -0.0124 -0.0304  0.1280 -0.0355 -0.1161 -0.0739  0.0205  0.0670
  39. Li 3 (px)  -0.0035 -0.0347 -0.0072  0.0727  0.0767  0.0110 -0.0301 -0.0648
  40. Li 3 (py)   0.0020  0.0200  0.0110 -0.0301 -0.0648  0.0054  0.0379  0.0018
[...]
  76. (0.00005) RY ( 2)Li  5            s(  3.15%)p26.70( 84.02%)d 4.08( 12.84%)
  77. (0.00001) RY ( 3)Li  5            s(  0.00%)p 1.00( 29.77%)d 2.36( 70.23%)
  78. (0.00001) RY ( 4)Li  5            s(  0.00%)p 1.00( 29.77%)d 2.36( 70.23%)
  79. (0.00001) RY ( 5)Li  5            s( 10.48%)p 5.85( 61.37%)d 2.69( 28.15%)
  80. (0.00000) RY ( 6)Li  5            s(  1.98%)p 0.97(  1.91%)d48.66( 96.11%)
  81. (0.00000) RY ( 7)Li  5            s( 13.70%)p 6.00( 82.13%)d 0.30(  4.17%)
  82. (0.00000) RY ( 8)Li  5            s(  1.30%)p71.12( 92.27%)d 4.96(  6.43%)
  83. (0.00000) RY ( 9)Li  5            s(  0.07%)p99.99( 67.49%)d99.99( 32.44%)
  84. (0.00000) RY (10)Li  5            s(  2.87%)p31.74( 91.07%)d 2.11(  6.06%)
  85. (0.00000) RY (11)Li  5            s( 20.15%)p 3.70( 74.55%)d 0.26(  5.30%)
  86. (0.00000) RY (12)Li  5            s( 22.04%)p 3.32( 73.14%)d 0.22(  4.82%)
  87. (0.00000) RY (13)Li  5            s(  3.69%)p17.25( 63.68%)d 8.84( 32.62%)
  88. (0.00000) RY (14)Li  5            s( 46.73%)p 0.87( 40.89%)d 0.27( 12.39%)
  89. (0.00000) RY (15)Li  5            s(  0.26%)p99.99( 78.83%)d80.72( 20.91%)
  90. (0.00000) RY (16)Li  5            s(  0.00%)p 1.00(  2.76%)d35.24( 97.24%)


 NHO DIRECTIONALITY AND BOND BENDING (deviation from line of nuclear centers at
                                      the position of maximum hybrid amplitude)

         [Thresholds for printing:  angular deviation  >  1.0 degree]
                                    p- or d-character  > 25.0%
                                    orbital occupancy  >  0.10e

                        Line of Centers        Hybrid 1             Hybrid 2
                        ---------------  -------------------  ------------------
           NBO            Theta   Phi    Theta   Phi    Dev   Theta   Phi    Dev
 ===============================================================================
    None exceeding thresholds


 SECOND ORDER PERTURBATION THEORY ANALYSIS OF FOCK MATRIX IN NBO BASIS

     Threshold for printing:   0.50 kcal/mol
    (Intermolecular threshold: 0.05 kcal/mol)
                                                          E(2) E(NL)-E(L) F(L,NL)
      Donor (L) NBO              Acceptor (NL) NBO      kcal/mol   a.u.    a.u.
 ===============================================================================

 within unit  1
    6. LP ( 1)Li  1            12. RY ( 2)Li  1           11.60    0.38   0.059
    6. LP ( 1)Li  1            13. RY ( 3)Li  1            9.09    0.40   0.054
    6. LP ( 1)Li  1            16. RY ( 6)Li  1           12.68    0.68   0.083
    6. LP ( 1)Li  1            18. RY ( 8)Li  1           52.50    1.15   0.219
    6. LP ( 1)Li  1            19. RY ( 9)Li  1           41.58    1.08   0.189
    6. LP ( 1)Li  1            20. RY (10)Li  1           29.63    0.46   0.104
    6. LP ( 1)Li  1            21. RY (11)Li  1           45.50    0.96   0.187
    6. LP ( 1)Li  1            22. RY (12)Li  1            1.18    0.35   0.018
    6. LP ( 1)Li  1            25. RY (15)Li  1           24.77    0.38   0.087
    6. LP ( 1)Li  1            26. RY (16)Li  1            3.36    0.48   0.036

 from unit  1 to unit  2
    6. LP ( 1)Li  1            28. RY ( 2)Li  2            3.13    0.38   0.031
    6. LP ( 1)Li  1            29. RY ( 3)Li  2            5.08    0.40   0.040
    6. LP ( 1)Li  1            30. RY ( 4)Li  2           25.86    0.50   0.102
    6. LP ( 1)Li  1            32. RY ( 6)Li  2            0.87    0.68   0.022
    6. LP ( 1)Li  1            33. RY ( 7)Li  2            1.06    0.30   0.016
    6. LP ( 1)Li  1            34. RY ( 8)Li  2            9.93    1.41   0.106
    6. LP ( 1)Li  1            35. RY ( 9)Li  2            3.41    0.67   0.043
    6. LP ( 1)Li  1            36. RY (10)Li  2            0.79    0.46   0.017
    6. LP ( 1)Li  1            37. RY (11)Li  2            9.87    0.44   0.059
    6. LP ( 1)Li  1            38. RY (12)Li  2            2.54    0.29   0.024
    6. LP ( 1)Li  1            39. RY (13)Li  2            1.82    0.50   0.027
    6. LP ( 1)Li  1            40. RY (14)Li  2            7.03    0.88   0.070
    6. LP ( 1)Li  1            41. RY (15)Li  2            0.59    0.49   0.015
    6. LP ( 1)Li  1            42. RY (16)Li  2            5.50    0.54   0.049

 from unit  1 to unit  3
    6. LP ( 1)Li  1            44. RY ( 2)Li  3            3.13    0.38   0.031
    6. LP ( 1)Li  1            45. RY ( 3)Li  3            5.08    0.40   0.040
    6. LP ( 1)Li  1            46. RY ( 4)Li  3           25.86    0.50   0.102
    6. LP ( 1)Li  1            48. RY ( 6)Li  3            0.87    0.68   0.022
    6. LP ( 1)Li  1            49. RY ( 7)Li  3            1.02    0.36   0.017
    6. LP ( 1)Li  1            50. RY ( 8)Li  3           10.77    1.97   0.130
    6. LP ( 1)Li  1            51. RY ( 9)Li  3            0.76    0.48   0.017
    6. LP ( 1)Li  1            52. RY (10)Li  3            1.30    0.48   0.022
    6. LP ( 1)Li  1            53. RY (11)Li  3           10.05    0.32   0.051
    6. LP ( 1)Li  1            55. RY (13)Li  3            0.95    0.58   0.021
    6. LP ( 1)Li  1            56. RY (14)Li  3            7.88    0.76   0.069
    6. LP ( 1)Li  1            57. RY (15)Li  3            0.07    0.48   0.005

 from unit  1 to unit  4
    6. LP ( 1)Li  1            10. BD*( 1)Li  4-Li  5    102.23    0.03   0.052
    6. LP ( 1)Li  1            59. RY ( 1)Li  4            3.42    0.16   0.021
    6. LP ( 1)Li  1            60. RY ( 2)Li  4            0.09    0.53   0.006
    6. LP ( 1)Li  1            62. RY ( 4)Li  4           12.72    0.49   0.070
    6. LP ( 1)Li  1            63. RY ( 5)Li  4            0.29    0.30   0.008
    6. LP ( 1)Li  1            65. RY ( 7)Li  4            0.18    0.38   0.007
    6. LP ( 1)Li  1            67. RY ( 9)Li  4            1.61    0.22   0.017
    6. LP ( 1)Li  1            68. RY (10)Li  4            3.84    0.35   0.033
    6. LP ( 1)Li  1            69. RY (11)Li  4            2.74    0.43   0.031
    6. LP ( 1)Li  1            70. RY (12)Li  4            1.37    0.36   0.020
    6. LP ( 1)Li  1            72. RY (14)Li  4            0.76    3.12   0.043
    6. LP ( 1)Li  1            75. RY ( 1)Li  5            3.42    0.16   0.021
    6. LP ( 1)Li  1            76. RY ( 2)Li  5            0.09    0.53   0.006
    6. LP ( 1)Li  1            78. RY ( 4)Li  5           12.72    0.49   0.070
    6. LP ( 1)Li  1            79. RY ( 5)Li  5            0.29    0.30   0.008
    6. LP ( 1)Li  1            80. RY ( 6)Li  5            0.11    0.53   0.007
    6. LP ( 1)Li  1            81. RY ( 7)Li  5            0.21    0.65   0.010
    6. LP ( 1)Li  1            82. RY ( 8)Li  5            0.08    0.42   0.005
    6. LP ( 1)Li  1            83. RY ( 9)Li  5            1.68    0.22   0.017
    6. LP ( 1)Li  1            84. RY (10)Li  5            6.89    0.21   0.034
    6. LP ( 1)Li  1            85. RY (11)Li  5            3.82    0.76   0.048
    6. LP ( 1)Li  1            86. RY (12)Li  5            0.25    0.85   0.013
    6. LP ( 1)Li  1            88. RY (14)Li  5            0.32    1.90   0.022
    6. LP ( 1)Li  1            89. RY (15)Li  5            0.12    0.29   0.005

 from unit  2 to unit  1
       None above threshold

 within unit  2
       None above threshold

 from unit  2 to unit  3
       None above threshold

 from unit  2 to unit  4
       None above threshold

 from unit  3 to unit  1
       None above threshold

 from unit  3 to unit  2
       None above threshold

 within unit  3
       None above threshold

 from unit  3 to unit  4
       None above threshold

 from unit  4 to unit  1
    7. BD ( 1)Li  4-Li  5      11. RY ( 1)Li  1           26.43    0.16   0.058
    7. BD ( 1)Li  4-Li  5      15. RY ( 5)Li  1            0.09    0.58   0.007
    7. BD ( 1)Li  4-Li  5      20. RY (10)Li  1            0.17    0.56   0.009
    7. BD ( 1)Li  4-Li  5      25. RY (15)Li  1            0.29    0.48   0.011

 from unit  4 to unit  2
    7. BD ( 1)Li  4-Li  5      27. RY ( 1)Li  2           26.43    0.16   0.058
    7. BD ( 1)Li  4-Li  5      31. RY ( 5)Li  2            0.09    0.58   0.007
    7. BD ( 1)Li  4-Li  5      40. RY (14)Li  2            0.21    0.98   0.013

 from unit  4 to unit  3
    7. BD ( 1)Li  4-Li  5      43. RY ( 1)Li  3           26.43    0.16   0.058
    7. BD ( 1)Li  4-Li  5      47. RY ( 5)Li  3            0.09    0.58   0.007
    7. BD ( 1)Li  4-Li  5      51. RY ( 9)Li  3            0.05    0.58   0.005
    7. BD ( 1)Li  4-Li  5      56. RY (14)Li  3            0.16    0.86   0.010

 within unit  4
    7. BD ( 1)Li  4-Li  5      59. RY ( 1)Li  4            4.37    0.26   0.030
    7. BD ( 1)Li  4-Li  5      60. RY ( 2)Li  4            0.76    0.63   0.019
    7. BD ( 1)Li  4-Li  5      63. RY ( 5)Li  4            2.02    0.40   0.025
    7. BD ( 1)Li  4-Li  5      66. RY ( 8)Li  4            0.51    0.39   0.012
    7. BD ( 1)Li  4-Li  5      68. RY (10)Li  4            0.68    0.45   0.016
    7. BD ( 1)Li  4-Li  5      71. RY (13)Li  4            0.71    0.44   0.016
    7. BD ( 1)Li  4-Li  5      72. RY (14)Li  4            2.83    3.22   0.085
    7. BD ( 1)Li  4-Li  5      75. RY ( 1)Li  5            4.37    0.26   0.030
    7. BD ( 1)Li  4-Li  5      76. RY ( 2)Li  5            0.76    0.63   0.019
    7. BD ( 1)Li  4-Li  5      79. RY ( 5)Li  5            2.02    0.40   0.025
    7. BD ( 1)Li  4-Li  5      81. RY ( 7)Li  5            1.91    0.75   0.034
    7. BD ( 1)Li  4-Li  5      85. RY (11)Li  5            1.70    0.86   0.034
    7. BD ( 1)Li  4-Li  5      86. RY (12)Li  5            1.76    0.95   0.036
    7. BD ( 1)Li  4-Li  5      87. RY (13)Li  5            0.71    0.44   0.016
    7. BD ( 1)Li  4-Li  5      88. RY (14)Li  5            2.47    1.99   0.063


 NATURAL BOND ORBITALS (Summary):

                                                     Principal Delocalizations
           NBO                 Occupancy    Energy   (geminal,vicinal,remote)
 ===============================================================================
 Molecular unit  1  (Li)
 ------ Lewis --------------------------------------
    1. CR ( 1)Li  1             1.99991    -2.13887
    6. LP ( 1)Li  1             0.52563    -0.11765  10(r),18(g),21(g),19(g)
                                                     20(g),30(r),46(r),25(g)
                                                     62(r),78(r),16(g),12(g)
                                                     50(r),53(r),34(r),37(r)
                                                     13(g),56(r),40(r),84(r)
                                                     42(r),29(r),45(r),68(r)
                                                     85(r),59(r),75(r),35(r)
                                                     26(g),28(r),44(r),69(r)
                                                     38(r),39(r),83(r),67(r)
                                                     70(r),52(r),22(g),33(r)
                                                     49(r),55(r),32(r),48(r)
                                                     36(r),72(r),51(r),41(r)
                                                     88(r),63(r),79(r),86(r)
                                                     81(r),65(r),89(r),80(r)
                                                     60(r),76(r),82(r),57(r)
 ------ non-Lewis ----------------------------------
   11. RY ( 1)Li  1             0.11358    -0.05571
   12. RY ( 2)Li  1             0.00005     0.26089
   13. RY ( 3)Li  1             0.00002     0.28117
   14. RY ( 4)Li  1             0.00001     0.38323
   15. RY ( 5)Li  1             0.00001     0.37000
   16. RY ( 6)Li  1             0.00001     0.55812
   17. RY ( 7)Li  1             0.00000     0.26569
   18. RY ( 8)Li  1             0.00000     1.03037
   19. RY ( 9)Li  1             0.00000     0.96156
   20. RY (10)Li  1             0.00000     0.34294
   21. RY (11)Li  1             0.00000     0.84610
   22. RY (12)Li  1             0.00000     0.23587
   23. RY (13)Li  1             0.00000     0.13375
   24. RY (14)Li  1             0.00000     0.36730
   25. RY (15)Li  1             0.00000     0.26186
   26. RY (16)Li  1             0.00000     0.36545
          -------------------------------
                 Total Lewis    2.52554  ( 95.6931%)
           Valence non-Lewis    0.00000  (  0.0000%)
           Rydberg non-Lewis    0.11367  (  4.3069%)
          -------------------------------
               Total unit  1    2.63921  (100.0000%)
              Charge unit  1    0.36079

 Molecular unit  2  (Li)
 ------ Lewis --------------------------------------
    2. CR ( 1)Li  2             1.99991    -2.13887
 ------ non-Lewis ----------------------------------
    8. LV ( 1)Li  2             0.52563    -0.11765
   27. RY ( 1)Li  2             0.11358    -0.05571
   28. RY ( 2)Li  2             0.00005     0.26089
   29. RY ( 3)Li  2             0.00002     0.28117
   30. RY ( 4)Li  2             0.00001     0.38323
   31. RY ( 5)Li  2             0.00001     0.37000
   32. RY ( 6)Li  2             0.00001     0.55812
   33. RY ( 7)Li  2             0.00000     0.18165
   34. RY ( 8)Li  2             0.00000     1.29189
   35. RY ( 9)Li  2             0.00000     0.55346
   36. RY (10)Li  2             0.00000     0.33888
   37. RY (11)Li  2             0.00000     0.31836
   38. RY (12)Li  2             0.00000     0.17543
   39. RY (13)Li  2             0.00000     0.38360
   40. RY (14)Li  2             0.00000     0.76602
   41. RY (15)Li  2             0.00000     0.37730
   42. RY (16)Li  2             0.00000     0.42432
          -------------------------------
                 Total Lewis    1.99991  ( 75.7768%)
           Valence non-Lewis    0.52563  ( 19.9163%)
           Rydberg non-Lewis    0.11367  (  4.3069%)
          -------------------------------
               Total unit  2    2.63921  (100.0000%)
              Charge unit  2    0.36079

 Molecular unit  3  (Li)
 ------ Lewis --------------------------------------
    3. CR ( 1)Li  3             1.99991    -2.13887
 ------ non-Lewis ----------------------------------
    9. LV ( 1)Li  3             0.52563    -0.11765
   43. RY ( 1)Li  3             0.11358    -0.05571
   44. RY ( 2)Li  3             0.00005     0.26089
   45. RY ( 3)Li  3             0.00002     0.28117
   46. RY ( 4)Li  3             0.00001     0.38323
   47. RY ( 5)Li  3             0.00001     0.37000
   48. RY ( 6)Li  3             0.00001     0.55812
   49. RY ( 7)Li  3             0.00000     0.23868
   50. RY ( 8)Li  3             0.00000     1.85058
   51. RY ( 9)Li  3             0.00000     0.36043
   52. RY (10)Li  3             0.00000     0.36426
   53. RY (11)Li  3             0.00000     0.20614
   54. RY (12)Li  3             0.00000     0.09424
   55. RY (13)Li  3             0.00000     0.46027
   56. RY (14)Li  3             0.00000     0.64516
   57. RY (15)Li  3             0.00000     0.36558
   58. RY (16)Li  3             0.00000     0.22557
          -------------------------------
                 Total Lewis    1.99991  ( 75.7768%)
           Valence non-Lewis    0.52563  ( 19.9163%)
           Rydberg non-Lewis    0.11367  (  4.3069%)
          -------------------------------
               Total unit  3    2.63921  (100.0000%)
              Charge unit  3    0.36079

 Molecular unit  4  (Li2)
 ------ Lewis --------------------------------------
    4. CR ( 1)Li  4             1.99992    -2.12838
    5. CR ( 1)Li  5             1.99992    -2.12838
    7. BD ( 1)Li  4-Li  5       1.65926    -0.21472  11(r),27(r),43(r),59(g)
                                                     75(g),72(g),88(g),63(g)
                                                     79(g),81(g),86(g),85(g)
                                                     60(g),76(g),71(g),87(g)
                                                     68(g),66(g),25(r),40(r)
                                                     20(r),56(r),15(r),31(r)
                                                     47(r),51(r)
 ------ non-Lewis ----------------------------------
   10. BD*( 1)Li  4-Li  5       0.41006    -0.15080
   59. RY ( 1)Li  4             0.00653     0.04408
   60. RY ( 2)Li  4             0.00005     0.41154
   61. RY ( 3)Li  4             0.00001     0.36788
   62. RY ( 4)Li  4             0.00001     0.36788
   63. RY ( 5)Li  4             0.00001     0.18358
   64. RY ( 6)Li  4             0.00000     0.18173
   65. RY ( 7)Li  4             0.00000     0.26573
   66. RY ( 8)Li  4             0.00000     0.17053
   67. RY ( 9)Li  4             0.00000     0.10095
   68. RY (10)Li  4             0.00000     0.23486
   69. RY (11)Li  4             0.00000     0.31701
   70. RY (12)Li  4             0.00000     0.23879
   71. RY (13)Li  4             0.00000     0.22380
   72. RY (14)Li  4             0.00000     3.00425
   73. RY (15)Li  4             0.00000     0.26445
   74. RY (16)Li  4             0.00000     0.34495
   75. RY ( 1)Li  5             0.00653     0.04408
   76. RY ( 2)Li  5             0.00005     0.41154
   77. RY ( 3)Li  5             0.00001     0.36788
   78. RY ( 4)Li  5             0.00001     0.36788
   79. RY ( 5)Li  5             0.00001     0.18358
   80. RY ( 6)Li  5             0.00000     0.41490
   81. RY ( 7)Li  5             0.00000     0.53629
   82. RY ( 8)Li  5             0.00000     0.30233
   83. RY ( 9)Li  5             0.00000     0.10051
   84. RY (10)Li  5             0.00000     0.09446
   85. RY (11)Li  5             0.00000     0.64466
   86. RY (12)Li  5             0.00000     0.73314
   87. RY (13)Li  5             0.00000     0.22380
   88. RY (14)Li  5             0.00000     1.77929
   89. RY (15)Li  5             0.00000     0.17271
   90. RY (16)Li  5             0.00000     0.34495
          -------------------------------
                 Total Lewis    5.65910  ( 93.0411%)
           Valence non-Lewis    0.41006  (  6.7418%)
           Rydberg non-Lewis    0.01321  (  0.2172%)
          -------------------------------
               Total unit  4    6.08237  (100.0000%)
              Charge unit  4   -0.08237

 $CHOOSE
   LONE 1 1 END
   BOND S 4 5 END
 $END

 Maximum scratch memory used by NBO was 391892 words (2.99 MB)
 Maximum scratch memory used by G09NBO was 49475 words (0.38 MB)

 Read Unf file /sob/g09/scratch/Gau-20876.EUF:
 Label Gaussian matrix elements                                         IVers= 1 NLab= 2 Version=ES64L-G09RevD.01
 Title b3lyp/6-311+G* opted                                            
 NAtoms=     5 NBasis=    90 NBsUse=    90 ICharg=     1 Multip=     1 NE=    14 Len12L=8 Len4L=8
 Label GAUSSIAN SCALARS                                                 NI= 1 NR= 1 NTot=       1 LenBuf=    2000 N=    1000       1       1       1       1
 Label NPA CHARGES                                                      NI= 0 NR= 1 NTot=       5 LenBuf=    4000 N=       5       0       0       0       0
 Recovered energy= -37.4288560260     dipole=      0.000000000000      0.000000000000      0.000000000000
 1\1\GINC-RHEL6U1\SP\RB3LYP\6-311G(d)\Li5(1+)\ROOT\03-Sep-2017\0\\# b3l
 yp/6-311g(d) pop=nbo6read\\b3lyp/6-311+G* opted\\1,1\Li,0,0.,1.553614,
 0.\Li,0,-1.345469,-0.776807,0.\Li,0,1.345469,-0.776807,0.\Li,0,0.,0.,2
 .737999\Li,0,0.,0.,-2.737999\\Version=ES64L-G09RevD.01\State=1-A1'\HF=
 -37.428856\RMSD=6.438e-09\Dipole=0.,0.,0.\Quadrupole=-4.7418858,-4.741
 8858,9.4837716,0.,0.,0.\PG=D03H [C3(Li1.Li1),3C2(Li1)]\\@


 IF YOU PERCEIVE THAT THERE ARE FOUR POSSIBLE WAYS IN
 WHICH A PROCEDURE CAN GO WRONG AND CIRCUMVENT THESE, 
 THEN A FIFTH WAY WILL DEVELOP.

                              -- MURPHY'S TWELFTH LAW
 Job cpu time:       0 days  0 hours  0 minutes 15.7 seconds.
 File lengths (MBytes):  RWF=      5 Int=      0 D2E=      0 Chk=      1 Scr=      1
 Normal termination of Gaussian 09 at Sun Sep  3 12:34:50 2017.
