 Entering Gaussian System, Link 0=g16
 Initial command:
 /sob/g16/l1.exe "/sob2/gauscr/Gau-2638.inp" -scrdir="/sob2/gauscr/"
 Default is to use a total of  36 processors:
                               36 via shared-memory
                                1 via Linda
 Entering Link 1 = /sob/g16/l1.exe PID=      2640.
  
 Copyright (c) 1988,1990,1992,1993,1995,1998,2003,2009,2016,
            Gaussian, Inc.  All Rights Reserved.
  
 This is part of the Gaussian(R) 16 program.  It is based on
 the Gaussian(R) 09 system (copyright 2009, Gaussian, Inc.),
 the Gaussian(R) 03 system (copyright 2003, Gaussian, Inc.),
 the Gaussian(R) 98 system (copyright 1998, Gaussian, Inc.),
 the Gaussian(R) 94 system (copyright 1995, Gaussian, Inc.),
 the Gaussian 92(TM) system (copyright 1992, Gaussian, Inc.),
 the Gaussian 90(TM) system (copyright 1990, Gaussian, Inc.),
 the Gaussian 88(TM) system (copyright 1988, Gaussian, Inc.),
 the Gaussian 86(TM) system (copyright 1986, Carnegie Mellon
 University), and the Gaussian 82(TM) system (copyright 1983,
 Carnegie Mellon University). Gaussian is a federally registered
 trademark of Gaussian, Inc.
  
 This software contains proprietary and confidential information,
 including trade secrets, belonging to Gaussian, Inc.
  
 This software is provided under written license and may be
 used, copied, transmitted, or stored only in accord with that
 written license.
  
 The following legend is applicable only to US Government
 contracts under FAR:
  
                    RESTRICTED RIGHTS LEGEND
  
 Use, reproduction and disclosure by the US Government is
 subject to restrictions as set forth in subparagraphs (a)
 and (c) of the Commercial Computer Software - Restricted
 Rights clause in FAR 52.227-19.
  
 Gaussian, Inc.
 340 Quinnipiac St., Bldg. 40, Wallingford CT 06492
  
  
 ---------------------------------------------------------------
 Warning -- This program may not be used in any manner that
 competes with the business of Gaussian, Inc. or will provide
 assistance to any competitor of Gaussian, Inc.  The licensee
 of this program is prohibited from giving any competitor of
 Gaussian, Inc. access to this program.  By using this program,
 the user acknowledges that Gaussian, Inc. is engaged in the
 business of creating and licensing software in the field of
 computational chemistry and represents and warrants to the
 licensee that it is not a competitor of Gaussian, Inc. and that
 it will not use this program in any manner prohibited above.
 ---------------------------------------------------------------
  

 Cite this work as:
 Gaussian 16, Revision A.03,
 M. J. Frisch, G. W. Trucks, H. B. Schlegel, G. E. Scuseria, 
 M. A. Robb, J. R. Cheeseman, G. Scalmani, V. Barone, 
 G. A. Petersson, H. Nakatsuji, X. Li, M. Caricato, A. V. Marenich, 
 J. Bloino, B. G. Janesko, R. Gomperts, B. Mennucci, H. P. Hratchian, 
 J. V. Ortiz, A. F. Izmaylov, J. L. Sonnenberg, D. Williams-Young, 
 F. Ding, F. Lipparini, F. Egidi, J. Goings, B. Peng, A. Petrone, 
 T. Henderson, D. Ranasinghe, V. G. Zakrzewski, J. Gao, N. Rega, 
 G. Zheng, W. Liang, M. Hada, M. Ehara, K. Toyota, R. Fukuda, 
 J. Hasegawa, M. Ishida, T. Nakajima, Y. Honda, O. Kitao, H. Nakai, 
 T. Vreven, K. Throssell, J. A. Montgomery, Jr., J. E. Peralta, 
 F. Ogliaro, M. J. Bearpark, J. J. Heyd, E. N. Brothers, K. N. Kudin, 
 V. N. Staroverov, T. A. Keith, R. Kobayashi, J. Normand, 
 K. Raghavachari, A. P. Rendell, J. C. Burant, S. S. Iyengar, 
 J. Tomasi, M. Cossi, J. M. Millam, M. Klene, C. Adamo, R. Cammi, 
 J. W. Ochterski, R. L. Martin, K. Morokuma, O. Farkas, 
 J. B. Foresman, and D. J. Fox, Gaussian, Inc., Wallingford CT, 2016.
 
 ******************************************
 Gaussian 16:  ES64L-G16RevA.03 25-Dec-2016
                12-Sep-2019 
 ******************************************
 -----------------------------------
 #p PBE1PBE/daug-cc-pVTZ polar=gamma
 -----------------------------------
 1/30=1,38=101,83=3,84=49,172=1/1,6;
 2/12=2,17=6,18=5,40=1/2;
 3/5=16,6=1,7=2010,11=2,25=1,30=1,74=-13/1,2,3;
 4/69=2/1;
 5/5=2,38=5,98=1/2;
 8/6=4,10=90,11=11/1;
 10/6=20001,13=10,60=-2,72=3/2;
 6/7=2,8=2,9=2,10=2,12=2,28=1/1;
 1/38=100,84=49/6(1);
 99/9=1/99;
 3/5=16,6=1,7=2010,11=2,14=-3,25=1,30=1,74=-13/1,2,3;
 4/5=5,16=3,69=2/1;
 5/5=2,38=5,98=1/2;
 8/6=4,10=90,11=11/1;
 10/6=20001,13=10,60=-2,72=3/2;
 6/7=2,8=2,9=2,10=2,12=2,28=1/1;
 1/38=100,84=49/6(-6);
 99/9=1/99;
 Leave Link    1 at Thu Sep 12 14:17:29 2019, MaxMem=           0 cpu:               2.4 elap:               0.1
 (Enter /sob/g16/l101.exe)
 -------------------------
 pbe1pbe/aug-cc-pVTZ opted
 -------------------------
 Symbolic Z-matrix:
 Charge =  0 Multiplicity = 1
 N                     0.        0.        0.11368 
 H                     0.        0.93903  -0.26524 
 H                    -0.81322  -0.46951  -0.26524 
 H                     0.81322  -0.46951  -0.26524 
 
 ITRead=  0  0  0  0
 MicOpt= -1 -1 -1 -1
 NAtoms=      4 NQM=        4 NQMF=       0 NMMI=      0 NMMIF=      0
                NMic=       0 NMicF=      0.
                    Isotopes and Nuclear Properties:
 (Nuclear quadrupole moments (NQMom) in fm**2, nuclear magnetic moments (NMagM)
  in nuclear magnetons)

  Atom         1           2           3           4
 IAtWgt=          14           1           1           1
 AtmWgt=  14.0030740   1.0078250   1.0078250   1.0078250
 NucSpn=           2           1           1           1
 AtZEff=  -0.0000000  -0.0000000  -0.0000000  -0.0000000
 NQMom=    2.0440000   0.0000000   0.0000000   0.0000000
 NMagM=    0.4037610   2.7928460   2.7928460   2.7928460
 AtZNuc=   7.0000000   1.0000000   1.0000000   1.0000000
 Using perturbation frequencies:    0.000000    0.067005    0.085645
 Leave Link  101 at Thu Sep 12 14:17:29 2019, MaxMem= 26843545600 cpu:               3.6 elap:               0.1
 (Enter /sob/g16/l106.exe)
 Differentiate once with respect to electric field.
 Nuclear step= 0.001000 Angstroms, electric field step= 0.000333 atomic units, NStep=1.
 Leave Link  106 at Thu Sep 12 14:17:29 2019, MaxMem= 26843545600 cpu:               0.1 elap:               0.0
 (Enter /sob/g16/l202.exe)
                          Input orientation:                          
 ---------------------------------------------------------------------
 Center     Atomic      Atomic             Coordinates (Angstroms)
 Number     Number       Type             X           Y           Z
 ---------------------------------------------------------------------
      1          7           0        0.000000    0.000000    0.113676
      2          1           0        0.000000    0.939028   -0.265244
      3          1           0       -0.813222   -0.469514   -0.265244
      4          1           0        0.813222   -0.469514   -0.265244
 ---------------------------------------------------------------------
                    Distance matrix (angstroms):
                    1          2          3          4
     1  N    0.000000
     2  H    1.012598   0.000000
     3  H    1.012598   1.626444   0.000000
     4  H    1.012598   1.626444   1.626444   0.000000
 Stoichiometry    H3N
 Framework group  C3V[C3(N),3SGV(H)]
 Deg. of freedom     2
 Full point group                 C3V     NOp   6
 Largest Abelian subgroup         CS      NOp   2
 Largest concise Abelian subgroup CS      NOp   2
                         Standard orientation:                         
 ---------------------------------------------------------------------
 Center     Atomic      Atomic             Coordinates (Angstroms)
 Number     Number       Type             X           Y           Z
 ---------------------------------------------------------------------
      1          7           0        0.000000    0.000000    0.113676
      2          1           0        0.000000    0.939028   -0.265244
      3          1           0       -0.813222   -0.469514   -0.265244
      4          1           0        0.813222   -0.469514   -0.265244
 ---------------------------------------------------------------------
 Rotational constants (GHZ):         299.0346594         299.0346594         189.5630629
 Leave Link  202 at Thu Sep 12 14:17:29 2019, MaxMem= 26843545600 cpu:               0.6 elap:               0.0
 (Enter /sob/g16/l301.exe)
 Standard basis: DAug-CC-pVTZ (5D, 7F)
 Ernie: Thresh=  0.10000D-02 Tol=  0.10000D-05 Strict=F.
 Ernie:  3 primitive shells out of 76 were deleted.
 There are   110 symmetry adapted cartesian basis functions of A'  symmetry.
 There are    70 symmetry adapted cartesian basis functions of A"  symmetry.
 There are    94 symmetry adapted basis functions of A'  symmetry.
 There are    64 symmetry adapted basis functions of A"  symmetry.
   158 basis functions,   203 primitive gaussians,   180 cartesian basis functions
     5 alpha electrons        5 beta electrons
       nuclear repulsion energy        11.9505442408 Hartrees.
 IExCor= 1009 DFT=T Ex+Corr=PBE1PBE ExCW=0 ScaHFX=  0.250000
 ScaDFX=  0.750000  0.750000  1.000000  1.000000 ScalE2=  1.000000  1.000000
 IRadAn=      5 IRanWt=     -1 IRanGd=            0 ICorTp=0 IEmpDi=  4
 NAtoms=    4 NActive=    4 NUniq=    2 SFac= 4.00D+00 NAtFMM=   60 NAOKFM=F Big=F
 Integral buffers will be    131072 words long.
 Raffenetti 2 integral format.
 Two-electron integral symmetry is turned on.
 Leave Link  301 at Thu Sep 12 14:17:29 2019, MaxMem= 26843545600 cpu:               2.6 elap:               0.1
 (Enter /sob/g16/l302.exe)
 NPDir=0 NMtPBC=     1 NCelOv=     1 NCel=       1 NClECP=     1 NCelD=      1
         NCelK=      1 NCelE2=     1 NClLst=     1 CellRange=     0.0.
 One-electron integrals computed using PRISM.
 One-electron integral symmetry used in STVInt
 NBasis=   158 RedAO= T EigKep=  1.64D-05  NBF=    94    64
 NBsUse=   158 1.00D-06 EigRej= -1.00D+00 NBFU=    94    64
 Precomputing XC quadrature grid using
 IXCGrd= 4 IRadAn=           5 IRanWt=          -1 IRanGd=           0 AccXCQ= 0.00D+00.
 Generated NRdTot=       0 NPtTot=           0 NUsed=           0 NTot=          32
 NSgBfM=   180   180   180   180   180 MxSgAt=     4 MxSgA2=     4.
 Leave Link  302 at Thu Sep 12 14:17:30 2019, MaxMem= 26843545600 cpu:               9.6 elap:               0.3
 (Enter /sob/g16/l303.exe)
 DipDrv:  MaxL=1.
 Leave Link  303 at Thu Sep 12 14:17:30 2019, MaxMem= 26843545600 cpu:               1.2 elap:               0.1
 (Enter /sob/g16/l401.exe)
 ExpMin= 8.42D-03 ExpMax= 1.14D+04 ExpMxC= 3.89D+02 IAcc=3 IRadAn=         5 AccDes= 0.00D+00
 Harris functional with IExCor= 1009 and IRadAn=       5 diagonalized for initial guess.
 HarFok:  IExCor= 1009 AccDes= 0.00D+00 IRadAn=         5 IDoV= 1 UseB2=F ITyADJ=14
 ICtDFT=  3500011 ScaDFX=  1.000000  1.000000  1.000000  1.000000
 FoFCou: FMM=F IPFlag=           0 FMFlag=      100000 FMFlg1=           0
         NFxFlg=           0 DoJE=T BraDBF=F KetDBF=T FulRan=T
         wScrn=  0.000000 ICntrl=       500 IOpCl=  0 I1Cent=   200000004 NGrid=           0
         NMat0=    1 NMatS0=      1 NMatT0=    0 NMatD0=    1 NMtDS0=    0 NMtDT0=    0
 Petite list used in FoFCou.
 Harris En= -56.5562594963088    
 JPrj=0 DoOrth=F DoCkMO=F.
 Initial guess orbital symmetries:
       Occupied  (A1) (A1) (E) (E) (A1)
       Virtual   (A1) (E) (E) (A1) (A1) (E) (E) (E) (E) (A1) (E)
                 (E) (A1) (A1) (E) (E) (E) (E) (A2) (A1) (E) (E)
                 (E) (E) (E) (E) (A1) (A1) (E) (E) (A1) (E) (E)
                 (A1) (A2) (A1) (E) (E) (E) (E) (E) (E) (A2) (A1)
                 (E) (E) (E) (E) (A1) (E) (E) (A1) (E) (E) (A2)
                 (A1) (E) (E) (A1) (A1) (E) (E) (E) (E) (E) (E)
                 (A2) (A1) (E) (E) (A1) (E) (E) (A2) (A1) (E) (E)
                 (E) (E) (A1) (E) (E) (A1) (E) (E) (A2) (E) (E)
                 (A1) (E) (E) (A1) (E) (E) (A2) (E) (E) (A1) (A1)
                 (E) (E) (E) (E) (A2) (A1) (E) (E) (A1) (E) (E)
                 (A1) (E) (E) (A1) (E) (E) (E) (E) (A2) (E) (E)
                 (A1) (A2) (E) (E) (A1) (E) (E) (A1) (E) (E) (E)
                 (E) (A1) (A2) (E) (E) (A1) (E) (E) (A1) (E) (E)
                 (A1) (E) (E) (A2) (A1) (E) (E) (E) (E) (A1)
 The electronic state of the initial guess is 1-A1.
 Leave Link  401 at Thu Sep 12 14:17:30 2019, MaxMem= 26843545600 cpu:              14.1 elap:               0.4
 (Enter /sob/g16/l502.exe)
 Keep R1 ints in memory in symmetry-blocked form, NReq=118444899.
 FoFCou: FMM=F IPFlag=           0 FMFlag=           0 FMFlg1=           0
         NFxFlg=           0 DoJE=F BraDBF=F KetDBF=F FulRan=T
         wScrn=  0.000000 ICntrl=       600 IOpCl=  0 I1Cent=           0 NGrid=           0
         NMat0=    1 NMatS0=  12561 NMatT0=    0 NMatD0=    1 NMtDS0=    0 NMtDT0=    0
 Petite list used in FoFCou.
 Closed shell SCF:
 Using DIIS extrapolation, IDIIS=  1040.
 NGot= 26843545600 LenX= 26803924415 LenY= 26803891574
 Requested convergence on RMS density matrix=1.00D-08 within 128 cycles.
 Requested convergence on MAX density matrix=1.00D-06.
 Requested convergence on             energy=1.00D-06.
 No special actions if energy rises.

 Cycle   1  Pass 1  IDiag  1:
 E= -56.4340992021741    
 DIIS: error= 4.02D-02 at cycle   1 NSaved=   1.
 NSaved= 1 IEnMin= 1 EnMin= -56.4340992021741     IErMin= 1 ErrMin= 4.02D-02
 ErrMax= 4.02D-02  0.00D+00 EMaxC= 1.00D-01 BMatC= 1.07D-01 BMatP= 1.07D-01
 IDIUse=3 WtCom= 5.98D-01 WtEn= 4.02D-01
 Coeff-Com:  0.100D+01
 Coeff-En:   0.100D+01
 Coeff:      0.100D+01
 Gap=     0.138 Goal=   None    Shift=    0.000
 GapD=    0.138 DampG=1.000 DampE=0.500 DampFc=0.5000 IDamp=-1.
 Damping current iteration by 5.00D-01
 RMSDP=2.42D-03 MaxDP=7.25D-02              OVMax= 2.56D-01

 Cycle   2  Pass 1  IDiag  1:
 E= -56.4610289205188     Delta-E=       -0.026929718345 Rises=F Damp=T
 DIIS: error= 9.15D-03 at cycle   2 NSaved=   2.
 NSaved= 2 IEnMin= 2 EnMin= -56.4610289205188     IErMin= 2 ErrMin= 9.15D-03
 ErrMax= 9.15D-03  0.00D+00 EMaxC= 1.00D-01 BMatC= 6.50D-03 BMatP= 1.07D-01
 IDIUse=3 WtCom= 9.08D-01 WtEn= 9.15D-02
 Coeff-Com:  0.155D+00 0.845D+00
 Coeff-En:   0.308D+00 0.692D+00
 Coeff:      0.169D+00 0.831D+00
 Gap=     0.268 Goal=   None    Shift=    0.000
 RMSDP=9.19D-04 MaxDP=2.79D-02 DE=-2.69D-02 OVMax= 1.65D-01

 Cycle   3  Pass 1  IDiag  1:
 E= -56.5156712804738     Delta-E=       -0.054642359955 Rises=F Damp=F
 DIIS: error= 1.48D-03 at cycle   3 NSaved=   3.
 NSaved= 3 IEnMin= 3 EnMin= -56.5156712804738     IErMin= 3 ErrMin= 1.48D-03
 ErrMax= 1.48D-03  0.00D+00 EMaxC= 1.00D-01 BMatC= 1.02D-04 BMatP= 6.50D-03
 IDIUse=3 WtCom= 9.85D-01 WtEn= 1.48D-02
 Coeff-Com: -0.206D-01 0.403D-01 0.980D+00
 Coeff-En:   0.000D+00 0.000D+00 0.100D+01
 Coeff:     -0.203D-01 0.397D-01 0.981D+00
 Gap=     0.272 Goal=   None    Shift=    0.000
 RMSDP=1.03D-04 MaxDP=2.91D-03 DE=-5.46D-02 OVMax= 3.87D-03

 Cycle   4  Pass 1  IDiag  1:
 E= -56.5157752005545     Delta-E=       -0.000103920081 Rises=F Damp=F
 DIIS: error= 2.07D-04 at cycle   4 NSaved=   4.
 NSaved= 4 IEnMin= 4 EnMin= -56.5157752005545     IErMin= 4 ErrMin= 2.07D-04
 ErrMax= 2.07D-04  0.00D+00 EMaxC= 1.00D-01 BMatC= 2.85D-06 BMatP= 1.02D-04
 IDIUse=3 WtCom= 9.98D-01 WtEn= 2.07D-03
 Coeff-Com:  0.250D-02-0.410D-02 0.516D-01 0.950D+00
 Coeff-En:   0.000D+00 0.000D+00 0.000D+00 0.100D+01
 Coeff:      0.250D-02-0.409D-02 0.515D-01 0.950D+00
 Gap=     0.273 Goal=   None    Shift=    0.000
 RMSDP=9.68D-06 MaxDP=2.65D-04 DE=-1.04D-04 OVMax= 8.14D-04

 Cycle   5  Pass 1  IDiag  1:
 E= -56.5157777877150     Delta-E=       -0.000002587161 Rises=F Damp=F
 DIIS: error= 2.09D-05 at cycle   5 NSaved=   5.
 NSaved= 5 IEnMin= 5 EnMin= -56.5157777877150     IErMin= 5 ErrMin= 2.09D-05
 ErrMax= 2.09D-05  0.00D+00 EMaxC= 1.00D-01 BMatC= 3.67D-08 BMatP= 2.85D-06
 IDIUse=1 WtCom= 1.00D+00 WtEn= 0.00D+00
 Coeff-Com:  0.101D-02-0.184D-02-0.386D-02 0.228D+00 0.777D+00
 Coeff:      0.101D-02-0.184D-02-0.386D-02 0.228D+00 0.777D+00
 Gap=     0.273 Goal=   None    Shift=    0.000
 RMSDP=1.04D-06 MaxDP=3.79D-05 DE=-2.59D-06 OVMax= 7.39D-05

 Cycle   6  Pass 1  IDiag  1:
 E= -56.5157778164614     Delta-E=       -0.000000028746 Rises=F Damp=F
 DIIS: error= 2.73D-06 at cycle   6 NSaved=   6.
 NSaved= 6 IEnMin= 6 EnMin= -56.5157778164614     IErMin= 6 ErrMin= 2.73D-06
 ErrMax= 2.73D-06  0.00D+00 EMaxC= 1.00D-01 BMatC= 3.36D-10 BMatP= 3.67D-08
 IDIUse=1 WtCom= 1.00D+00 WtEn= 0.00D+00
 Coeff-Com: -0.950D-04 0.908D-04-0.574D-03-0.173D-01 0.128D-01 0.101D+01
 Coeff:     -0.950D-04 0.908D-04-0.574D-03-0.173D-01 0.128D-01 0.101D+01
 Gap=     0.273 Goal=   None    Shift=    0.000
 RMSDP=2.08D-07 MaxDP=7.70D-06 DE=-2.87D-08 OVMax= 1.51D-05

 Cycle   7  Pass 1  IDiag  1:
 E= -56.5157778169627     Delta-E=       -0.000000000501 Rises=F Damp=F
 DIIS: error= 1.89D-07 at cycle   7 NSaved=   7.
 NSaved= 7 IEnMin= 7 EnMin= -56.5157778169627     IErMin= 7 ErrMin= 1.89D-07
 ErrMax= 1.89D-07  0.00D+00 EMaxC= 1.00D-01 BMatC= 3.89D-12 BMatP= 3.36D-10
 IDIUse=1 WtCom= 1.00D+00 WtEn= 0.00D+00
 Coeff-Com: -0.266D-05 0.690D-05-0.870D-04-0.674D-03-0.881D-02-0.571D-01
 Coeff-Com:  0.107D+01
 Coeff:     -0.266D-05 0.690D-05-0.870D-04-0.674D-03-0.881D-02-0.571D-01
 Coeff:      0.107D+01
 Gap=     0.273 Goal=   None    Shift=    0.000
 RMSDP=3.65D-08 MaxDP=2.40D-06 DE=-5.01D-10 OVMax= 1.47D-06

 Cycle   8  Pass 1  IDiag  1:
 E= -56.5157778169674     Delta-E=       -0.000000000005 Rises=F Damp=F
 DIIS: error= 1.43D-08 at cycle   8 NSaved=   8.
 NSaved= 8 IEnMin= 8 EnMin= -56.5157778169674     IErMin= 8 ErrMin= 1.43D-08
 ErrMax= 1.43D-08  0.00D+00 EMaxC= 1.00D-01 BMatC= 1.63D-14 BMatP= 3.89D-12
 IDIUse=1 WtCom= 1.00D+00 WtEn= 0.00D+00
 Coeff-Com:  0.618D-06-0.580D-06 0.159D-05 0.180D-03-0.420D-04-0.368D-02
 Coeff-Com: -0.600D-02 0.101D+01
 Coeff:      0.618D-06-0.580D-06 0.159D-05 0.180D-03-0.420D-04-0.368D-02
 Coeff:     -0.600D-02 0.101D+01
 Gap=     0.273 Goal=   None    Shift=    0.000
 RMSDP=1.67D-09 MaxDP=9.09D-08 DE=-4.70D-12 OVMax= 6.04D-08

 SCF Done:  E(RPBE1PBE) =  -56.5157778170     A.U. after    8 cycles
            NFock=  8  Conv=0.17D-08     -V/T= 2.0062
 KE= 5.616632088628D+01 PE=-1.558337792501D+02 EE= 3.120113630606D+01
 Leave Link  502 at Thu Sep 12 14:17:32 2019, MaxMem= 26843545600 cpu:              54.0 elap:               1.7
 (Enter /sob/g16/l801.exe)
 DoSCS=F DFT=T ScalE2(SS,OS)=  1.000000  1.000000
 Range of M.O.s used for correlation:     1   158
 NBasis=   158 NAE=     5 NBE=     5 NFC=     0 NFV=     0
 NROrb=    158 NOA=     5 NOB=     5 NVA=   153 NVB=   153

 **** Warning!!: The largest alpha MO coefficient is  0.84544089D+02

 Leave Link  801 at Thu Sep 12 14:17:32 2019, MaxMem= 26843545600 cpu:               0.9 elap:               0.1
 (Enter /sob/g16/l1002.exe)
 Minotr:  Closed shell wavefunction.
          Direct CPHF calculation.
          Differentiating once with respect to electric field.
                with respect to dipole field.
          Electric field/nuclear overlap derivatives assumed to be zero.
          Requested convergence is 1.0D-08 RMS, and 1.0D-07 maximum.
          NewPWx=F KeepS1=T KeepF1=T KeepIn=T MapXYZ=F SortEE=F KeepMc=T.
         1893 words used for storage of precomputed grid.
 Keep R1 and R3 ints in memory in symmetry-blocked form, NReq=118594143.
 FoFCou: FMM=F IPFlag=           0 FMFlag=           0 FMFlg1=           0
         NFxFlg=           0 DoJE=F BraDBF=F KetDBF=F FulRan=T
         wScrn=  0.000000 ICntrl=       600 IOpCl=  0 I1Cent=           0 NGrid=           0
         NMat0=    1 NMatS0=  12561 NMatT0=    0 NMatD0=    1 NMtDS0=    0 NMtDT0=    0
 Petite list used in FoFCou.
 Two-electron integral symmetry used by symmetrizing perturbed Fock matrices.
          MDV=   26843545600 using IRadAn=       4.
          Solving linear equations separately, MaxMat=       0.
          Doing perturbations at frequencies    0.000000    0.067005    0.085645    0.134010    0.171291
          There are    15 degrees of freedom in the 1st order CPHF.  IDoFFX=0 NUNeed=    15.
 LinEq1:  Iter=  0 NonCon=    15 RMS=1.61D-01 Max=4.39D+00 NDo=    15
 AX will form    15 AO Fock derivatives at one time.
 LinEq1:  Iter=  1 NonCon=    15 RMS=6.61D-02 Max=1.01D+00 NDo=    15
 LinEq1:  Iter=  2 NonCon=    15 RMS=4.72D-02 Max=7.42D-01 NDo=    15
 LinEq1:  Iter=  3 NonCon=    15 RMS=1.35D-02 Max=1.58D-01 NDo=    15
 LinEq1:  Iter=  4 NonCon=    15 RMS=2.41D-03 Max=4.96D-02 NDo=    15
 LinEq1:  Iter=  5 NonCon=    15 RMS=2.07D-04 Max=2.46D-03 NDo=    15
 LinEq1:  Iter=  6 NonCon=    15 RMS=1.52D-05 Max=2.54D-04 NDo=    15
 LinEq1:  Iter=  7 NonCon=    14 RMS=1.24D-06 Max=1.57D-05 NDo=    15
 LinEq1:  Iter=  8 NonCon=    10 RMS=1.21D-07 Max=1.84D-06 NDo=    14
 LinEq1:  Iter=  9 NonCon=     2 RMS=1.54D-08 Max=1.66D-07 NDo=    10
 LinEq1:  Iter= 10 NonCon=     0 RMS=1.69D-09 Max=1.61D-08 NDo=     2
 Linear equations converged to 1.000D-08 1.000D-07 after    10 iterations.
 FullF1:  Do perturbations      1 to      15.
 SCF Polarizability for W=    0.000000:
                1             2             3 
      1  0.137779D+02
      2  0.000000D+00  0.137779D+02
      3  0.000000D+00 -0.110595D-04  0.156387D+02
 Isotropic polarizability for W=    0.000000       14.40 Bohr**3.
 SCF Polarizability for W=    0.067005:
                1             2             3 
      1  0.140077D+02
      2  0.000000D+00  0.140077D+02
      3  0.000000D+00 -0.126170D-04  0.162354D+02
 Isotropic polarizability for W=    0.067005       14.75 Bohr**3.
 SCF Polarizability for W=    0.085645:
                1             2             3 
      1  0.141595D+02
      2  0.000000D+00  0.141595D+02
      3  0.000000D+00 -0.137814D-04  0.166616D+02
 Isotropic polarizability for W=    0.085645       14.99 Bohr**3.
 SCF Polarizability for W=    0.134010:
                1             2             3 
      1  0.147758D+02
      2  0.000000D+00  0.147758D+02
      3  0.000000D+00 -0.200270D-04  0.187444D+02
 Isotropic polarizability for W=    0.134010       16.10 Bohr**3.
 SCF Polarizability for W=    0.171291:
                1             2             3 
      1  0.155444D+02
      2  0.000000D+00  0.155444D+02
      3  0.000000D+00 -0.338518D-04  0.227362D+02
 Isotropic polarizability for W=    0.171291       17.94 Bohr**3.
 SCF Static Hyperpolarizability:
 K=  1 block:
                1 
      1  0.000000D+00
 K=  2 block:
                1             2 
      1 -0.823443D+01
      2  0.000000D+00  0.823413D+01
 K=  3 block:
                1             2             3 
      1 -0.106306D+02
      2  0.000000D+00 -0.106299D+02
      3  0.000000D+00  0.213747D-02 -0.370857D+02
 SCF Beta(-W,W;0) for W=    0.067005:
 K=  1 block:
                1             2             3 
      1  0.000000D+00
      2 -0.874355D+01  0.000000D+00
      3 -0.123216D+02  0.000000D+00  0.000000D+00
 K=  2 block:
                1             2             3 
      1 -0.874356D+01
      2  0.000000D+00  0.874326D+01
      3  0.000000D+00 -0.123209D+02  0.256405D-02
 K=  3 block:
                1             2             3 
      1 -0.118341D+02
      2  0.000000D+00 -0.118334D+02
      3  0.000000D+00  0.251224D-02 -0.446131D+02
 SCF Beta(W,W;-2W) for W=    0.067005:
 K=  1 block:
                1             2             3 
      1  0.000000D+00
      2 -0.996706D+01  0.000000D+00
      3 -0.157017D+02  0.000000D+00  0.000000D+00
 K=  2 block:
                1             2             3 
      1 -0.996700D+01
      2  0.000000D+00  0.996682D+01
      3  0.000000D+00 -0.157009D+02  0.349918D-02
 K=  3 block:
                1             2             3 
      1 -0.186268D+02
      2  0.000000D+00 -0.186261D+02
      3  0.000000D+00  0.384028D-02 -0.691134D+02
 SCF Beta(-W,W;0) for W=    0.085645:
 K=  1 block:
                1             2             3 
      1  0.000000D+00
      2 -0.909820D+01  0.000000D+00
      3 -0.136433D+02  0.000000D+00  0.000000D+00
 K=  2 block:
                1             2             3 
      1 -0.909822D+01
      2  0.000000D+00  0.909793D+01
      3  0.000000D+00 -0.136426D+02  0.290274D-02
 K=  3 block:
                1             2             3 
      1 -0.127095D+02
      2  0.000000D+00 -0.127087D+02
      3  0.000000D+00  0.280100D-02 -0.506524D+02
 SCF Beta(W,W;-2W) for W=    0.085645:
 K=  1 block:
                1             2             3 
      1  0.000000D+00
      2 -0.114975D+02  0.000000D+00
      3 -0.213027D+02  0.000000D+00  0.000000D+00
 K=  2 block:
                1             2             3 
      1 -0.114973D+02
      2  0.000000D+00  0.114974D+02
      3  0.000000D+00 -0.213018D+02  0.511383D-02
 K=  3 block:
                1             2             3 
      1 -0.316961D+02
      2  0.000000D+00 -0.316957D+02
      3  0.000000D+00  0.647195D-02 -0.120504D+03
 SCF Beta(-W,W;0) for W=    0.134010:
 K=  1 block:
                1             2             3 
      1  0.000000D+00
      2 -0.107114D+02  0.000000D+00
      3 -0.214802D+02  0.000000D+00  0.000000D+00
 K=  2 block:
                1             2             3 
      1 -0.107115D+02
      2  0.000000D+00  0.107113D+02
      3  0.000000D+00 -0.214795D+02  0.500720D-02
 K=  3 block:
                1             2             3 
      1 -0.170602D+02
      2  0.000000D+00 -0.170593D+02
      3  0.000000D+00  0.446911D-02 -0.889317D+02
 SCF Beta(-W,W;0) for W=    0.171291:
 K=  1 block:
                1             2             3 
      1  0.000000D+00
      2 -0.132356D+02  0.000000D+00
      3 -0.424573D+02  0.000000D+00  0.000000D+00
 K=  2 block:
                1             2             3 
      1 -0.132359D+02
      2  0.000000D+00  0.132362D+02
      3  0.000000D+00 -0.424571D+02  0.114529D-01
 K=  3 block:
                1             2             3 
      1 -0.249650D+02
      2  0.000000D+00 -0.249639D+02
      3  0.000000D+00  0.887282D-02 -0.209074D+03
 End of Minotr F.D. properties on file   721 Mask=      31 NFrqRd=     3 NDeriv=     1 ND12= 1 LenFil=     140:
 Frequencies=    0.000000    0.067005    0.085645
 Property number 1 -- Alpha(-w,w) frequency  1    0.000000:
                 1             2             3 
      1   0.137779D+02  0.000000D+00  0.000000D+00
      2   0.000000D+00  0.137779D+02 -0.110595D-04
      3   0.000000D+00 -0.110595D-04  0.156387D+02
 Property number 1 -- Alpha(-w,w) frequency  2    0.067005:
                 1             2             3 
      1   0.140077D+02  0.000000D+00  0.000000D+00
      2   0.000000D+00  0.140077D+02 -0.126170D-04
      3   0.000000D+00 -0.126170D-04  0.162354D+02
 Property number 1 -- Alpha(-w,w) frequency  3    0.085645:
                 1             2             3 
      1   0.141595D+02  0.000000D+00  0.000000D+00
      2   0.000000D+00  0.141595D+02 -0.137814D-04
      3   0.000000D+00 -0.137814D-04  0.166616D+02
 Property number 5 -- Beta(-w,w,0) frequency  1    0.000000:
                 1 
      1   0.000000D+00
      2  -0.823443D+01
      3   0.000000D+00
      4  -0.106306D+02
      5   0.000000D+00
      6   0.000000D+00
      7  -0.823443D+01
      8   0.000000D+00
      9   0.823413D+01
     10   0.000000D+00
     11  -0.106299D+02
     12   0.213747D-02
     13  -0.106306D+02
     14   0.000000D+00
     15  -0.106299D+02
     16   0.000000D+00
     17   0.213747D-02
     18  -0.370857D+02
 Property number 5 -- Beta(-w,w,0) frequency  2    0.067005:
                 1 
      1   0.000000D+00
      2  -0.874355D+01
      3   0.000000D+00
      4  -0.123216D+02
      5   0.000000D+00
      6   0.000000D+00
      7  -0.874356D+01
      8   0.000000D+00
      9   0.874326D+01
     10   0.000000D+00
     11  -0.123209D+02
     12   0.256405D-02
     13  -0.118341D+02
     14   0.000000D+00
     15  -0.118334D+02
     16   0.000000D+00
     17   0.251224D-02
     18  -0.446131D+02
 Property number 5 -- Beta(-w,w,0) frequency  3    0.085645:
                 1 
      1   0.000000D+00
      2  -0.909820D+01
      3   0.000000D+00
      4  -0.136433D+02
      5   0.000000D+00
      6   0.000000D+00
      7  -0.909822D+01
      8   0.000000D+00
      9   0.909793D+01
     10   0.000000D+00
     11  -0.136426D+02
     12   0.290274D-02
     13  -0.127095D+02
     14   0.000000D+00
     15  -0.127087D+02
     16   0.000000D+00
     17   0.280100D-02
     18  -0.506524D+02
 Property number 6 -- Beta(w,w,-2w) frequency  1    0.000000:
                 1 
      1   0.000000D+00
      2  -0.823443D+01
      3   0.000000D+00
      4  -0.106306D+02
      5   0.000000D+00
      6   0.000000D+00
      7  -0.823443D+01
      8   0.000000D+00
      9   0.823413D+01
     10   0.000000D+00
     11  -0.106299D+02
     12   0.213747D-02
     13  -0.106306D+02
     14   0.000000D+00
     15  -0.106299D+02
     16   0.000000D+00
     17   0.213747D-02
     18  -0.370857D+02
 Property number 6 -- Beta(w,w,-2w) frequency  2    0.067005:
                 1 
      1   0.000000D+00
      2  -0.996706D+01
      3   0.000000D+00
      4  -0.157017D+02
      5   0.000000D+00
      6   0.000000D+00
      7  -0.996700D+01
      8   0.000000D+00
      9   0.996682D+01
     10   0.000000D+00
     11  -0.157009D+02
     12   0.349918D-02
     13  -0.186268D+02
     14   0.000000D+00
     15  -0.186261D+02
     16   0.000000D+00
     17   0.384028D-02
     18  -0.691134D+02
 Property number 6 -- Beta(w,w,-2w) frequency  3    0.085645:
                 1 
      1   0.000000D+00
      2  -0.114975D+02
      3   0.000000D+00
      4  -0.213027D+02
      5   0.000000D+00
      6   0.000000D+00
      7  -0.114973D+02
      8   0.000000D+00
      9   0.114974D+02
     10   0.000000D+00
     11  -0.213018D+02
     12   0.511383D-02
     13  -0.316961D+02
     14   0.000000D+00
     15  -0.316957D+02
     16   0.000000D+00
     17   0.647195D-02
     18  -0.120504D+03
 End of Minotr F.D. properties file   722 does not exist.
 End of Minotr F.D. properties file   788 does not exist.
 Leave Link 1002 at Thu Sep 12 14:17:39 2019, MaxMem= 26843545600 cpu:             219.2 elap:               6.1
 (Enter /sob/g16/l601.exe)
 Copying SCF densities to generalized density rwf, IOpCl= 0 IROHF=0.

 **********************************************************************

            Population analysis using the SCF density.

 **********************************************************************

 Orbital symmetries:
       Occupied  (A1) (A1) (E) (E) (A1)
       Virtual   (A1) (E) (E) (A1) (A1) (E) (E) (E) (E) (A1) (E)
                 (E) (A1) (A1) (E) (E) (A2) (E) (E) (A1) (E) (E)
                 (E) (E) (E) (E) (A1) (A1) (E) (E) (A1) (E) (E)
                 (A2) (A1) (E) (E) (A1) (E) (E) (A2) (A1) (E) (E)
                 (E) (E) (E) (E) (A1) (E) (E) (A1) (E) (E) (A2)
                 (A1) (E) (E) (A1) (E) (E) (A1) (E) (E) (E) (E)
                 (A2) (A1) (E) (E) (A1) (E) (E) (A2) (E) (E) (A1)
                 (E) (E) (A1) (E) (E) (A1) (E) (E) (A2) (E) (E)
                 (A1) (E) (E) (A1) (E) (E) (A2) (E) (E) (A1) (A1)
                 (E) (E) (E) (E) (A2) (A1) (E) (E) (A1) (E) (E)
                 (A1) (E) (E) (E) (E) (A1) (A2) (E) (E) (E) (E)
                 (A1) (A2) (E) (E) (A1) (E) (E) (A1) (E) (E) (E)
                 (E) (A2) (A1) (E) (E) (A1) (E) (E) (A1) (E) (E)
                 (A1) (E) (E) (A2) (A1) (E) (E) (E) (E) (A1)
 The electronic state is 1-A1.
 Alpha  occ. eigenvalues --  -14.36259  -0.87811  -0.47639  -0.47639  -0.28387
 Alpha virt. eigenvalues --   -0.01062   0.01227   0.01227   0.01993   0.02641
 Alpha virt. eigenvalues --    0.03900   0.03900   0.05382   0.05382   0.06945
 Alpha virt. eigenvalues --    0.07081   0.07081   0.07580   0.10165   0.10258
 Alpha virt. eigenvalues --    0.10258   0.11570   0.11604   0.11604   0.16067
 Alpha virt. eigenvalues --    0.16504   0.16504   0.17738   0.17738   0.18589
 Alpha virt. eigenvalues --    0.18589   0.19108   0.19318   0.25030   0.25030
 Alpha virt. eigenvalues --    0.25536   0.27161   0.27161   0.28213   0.28245
 Alpha virt. eigenvalues --    0.33023   0.33023   0.34323   0.34721   0.34721
 Alpha virt. eigenvalues --    0.35481   0.37152   0.37274   0.37274   0.37611
 Alpha virt. eigenvalues --    0.37611   0.39805   0.39805   0.43092   0.44156
 Alpha virt. eigenvalues --    0.44156   0.50680   0.55585   0.55585   0.55800
 Alpha virt. eigenvalues --    0.57229   0.60779   0.60779   0.62402   0.65371
 Alpha virt. eigenvalues --    0.65371   0.66307   0.71436   0.71436   0.73509
 Alpha virt. eigenvalues --    0.73509   0.80419   0.86702   0.92058   0.92058
 Alpha virt. eigenvalues --    0.92894   1.02753   1.02753   1.05343   1.08725
 Alpha virt. eigenvalues --    1.08725   1.09354   1.12223   1.12223   1.13711
 Alpha virt. eigenvalues --    1.19809   1.19809   1.20276   1.24640   1.24640
 Alpha virt. eigenvalues --    1.27101   1.29551   1.29551   1.36086   1.45357
 Alpha virt. eigenvalues --    1.45357   1.56492   1.59184   1.59184   1.71893
 Alpha virt. eigenvalues --    1.77324   1.77324   1.80559   1.95348   1.96856
 Alpha virt. eigenvalues --    1.96856   2.07503   2.07503   2.25837   2.28810
 Alpha virt. eigenvalues --    2.34329   2.34329   2.40125   2.40943   2.40943
 Alpha virt. eigenvalues --    3.28770   3.50650   3.50650   3.75792   3.75792
 Alpha virt. eigenvalues --    3.79774   3.95391   3.95676   3.95676   4.01044
 Alpha virt. eigenvalues --    4.01044   4.09913   4.11314   4.18534   4.18534
 Alpha virt. eigenvalues --    4.29950   4.34181   4.34181   4.46451   4.57627
 Alpha virt. eigenvalues --    4.57627   4.68051   4.68051   4.71534   4.75025
 Alpha virt. eigenvalues --    4.90606   4.90606   5.02097   5.33552   5.33552
 Alpha virt. eigenvalues --    5.42993   5.59438   5.59438   5.70529   5.97230
 Alpha virt. eigenvalues --    5.97230   6.09643   6.27731   6.61307   6.61307
 Alpha virt. eigenvalues --    7.43195   7.43195  16.88300
 Electronic spatial extent (au):  <R**2>=             26.9131
 Charge=             -0.0000 electrons
 Dipole moment (field-independent basis, Debye):
    X=             -0.0000    Y=              0.0000    Z=             -1.5182  Tot=              1.5182
 Quadrupole moment (field-independent basis, Debye-Ang):
   XX=             -6.3160   YY=             -6.3160   ZZ=             -9.4127
   XY=             -0.0000   XZ=             -0.0000   YZ=             -0.0000
 Traceless Quadrupole moment (field-independent basis, Debye-Ang):
   XX=              1.0323   YY=              1.0323   ZZ=             -2.0645
   XY=             -0.0000   XZ=             -0.0000   YZ=             -0.0000
 Octapole moment (field-independent basis, Debye-Ang**2):
  XXX=             -0.0000  YYY=              0.9575  ZZZ=             -1.1903  XYY=              0.0000
  XXY=             -0.9575  XXZ=             -0.8475  XZZ=              0.0000  YZZ=              0.0000
  YYZ=             -0.8475  XYZ=              0.0000
 Hexadecapole moment (field-independent basis, Debye-Ang**3):
 XXXX=            -10.4895 YYYY=            -10.4895 ZZZZ=            -13.2630 XXXY=              0.0000
 XXXZ=             -0.0000 YYYX=              0.0000 YYYZ=             -0.3415 ZZZX=             -0.0000
 ZZZY=             -0.0000 XXYY=             -3.4965 XXZZ=             -4.1252 YYZZ=             -4.1252
 XXYZ=              0.3415 YYXZ=             -0.0000 ZZXY=              0.0000
 N-N= 1.195054424083D+01 E-N=-1.558337786829D+02  KE= 5.616632088628D+01
 Symmetry A'   KE= 5.349503247001D+01
 Symmetry A"   KE= 2.671288416275D+00
  Exact polarizability:  13.778  -0.000  13.778   0.000  -0.000  15.639
 Approx polarizability:  16.609  -0.000  16.609   0.000   0.000  17.167
 No NMR shielding tensors so no spin-rotation constants.
 Leave Link  601 at Thu Sep 12 14:17:39 2019, MaxMem= 26843545600 cpu:               8.6 elap:               0.3
 (Enter /sob/g16/l106.exe)
 NDeriv=      3 NFrqRd=  3 NDerD0=      0 MskFDP=      31 MskDFD=      31 MskDF0=       0
 At 1st pt F.D. properties on file   721 Mask=      31 NFrqRd=     3 NDeriv=     1 ND12= 1 LenFil=     140:
 Frequencies=    0.000000    0.067005    0.085645
 Property number 1 -- Alpha(-w,w) frequency  1    0.000000:
                 1             2             3 
      1   0.137779D+02  0.000000D+00  0.000000D+00
      2   0.000000D+00  0.137779D+02 -0.110595D-04
      3   0.000000D+00 -0.110595D-04  0.156387D+02
 Property number 1 -- Alpha(-w,w) frequency  2    0.067005:
                 1             2             3 
      1   0.140077D+02  0.000000D+00  0.000000D+00
      2   0.000000D+00  0.140077D+02 -0.126170D-04
      3   0.000000D+00 -0.126170D-04  0.162354D+02
 Property number 1 -- Alpha(-w,w) frequency  3    0.085645:
                 1             2             3 
      1   0.141595D+02  0.000000D+00  0.000000D+00
      2   0.000000D+00  0.141595D+02 -0.137814D-04
      3   0.000000D+00 -0.137814D-04  0.166616D+02
 Property number 5 -- Beta(-w,w,0) frequency  1    0.000000:
                 1 
      1   0.000000D+00
      2  -0.823443D+01
      3   0.000000D+00
      4  -0.106306D+02
      5   0.000000D+00
      6   0.000000D+00
      7  -0.823443D+01
      8   0.000000D+00
      9   0.823413D+01
     10   0.000000D+00
     11  -0.106299D+02
     12   0.213747D-02
     13  -0.106306D+02
     14   0.000000D+00
     15  -0.106299D+02
     16   0.000000D+00
     17   0.213747D-02
     18  -0.370857D+02
 Property number 5 -- Beta(-w,w,0) frequency  2    0.067005:
                 1 
      1   0.000000D+00
      2  -0.874355D+01
      3   0.000000D+00
      4  -0.123216D+02
      5   0.000000D+00
      6   0.000000D+00
      7  -0.874356D+01
      8   0.000000D+00
      9   0.874326D+01
     10   0.000000D+00
     11  -0.123209D+02
     12   0.256405D-02
     13  -0.118341D+02
     14   0.000000D+00
     15  -0.118334D+02
     16   0.000000D+00
     17   0.251224D-02
     18  -0.446131D+02
 Property number 5 -- Beta(-w,w,0) frequency  3    0.085645:
                 1 
      1   0.000000D+00
      2  -0.909820D+01
      3   0.000000D+00
      4  -0.136433D+02
      5   0.000000D+00
      6   0.000000D+00
      7  -0.909822D+01
      8   0.000000D+00
      9   0.909793D+01
     10   0.000000D+00
     11  -0.136426D+02
     12   0.290274D-02
     13  -0.127095D+02
     14   0.000000D+00
     15  -0.127087D+02
     16   0.000000D+00
     17   0.280100D-02
     18  -0.506524D+02
 Property number 6 -- Beta(w,w,-2w) frequency  1    0.000000:
                 1 
      1   0.000000D+00
      2  -0.823443D+01
      3   0.000000D+00
      4  -0.106306D+02
      5   0.000000D+00
      6   0.000000D+00
      7  -0.823443D+01
      8   0.000000D+00
      9   0.823413D+01
     10   0.000000D+00
     11  -0.106299D+02
     12   0.213747D-02
     13  -0.106306D+02
     14   0.000000D+00
     15  -0.106299D+02
     16   0.000000D+00
     17   0.213747D-02
     18  -0.370857D+02
 Property number 6 -- Beta(w,w,-2w) frequency  2    0.067005:
                 1 
      1   0.000000D+00
      2  -0.996706D+01
      3   0.000000D+00
      4  -0.157017D+02
      5   0.000000D+00
      6   0.000000D+00
      7  -0.996700D+01
      8   0.000000D+00
      9   0.996682D+01
     10   0.000000D+00
     11  -0.157009D+02
     12   0.349918D-02
     13  -0.186268D+02
     14   0.000000D+00
     15  -0.186261D+02
     16   0.000000D+00
     17   0.384028D-02
     18  -0.691134D+02
 Property number 6 -- Beta(w,w,-2w) frequency  3    0.085645:
                 1 
      1   0.000000D+00
      2  -0.114975D+02
      3   0.000000D+00
      4  -0.213027D+02
      5   0.000000D+00
      6   0.000000D+00
      7  -0.114973D+02
      8   0.000000D+00
      9   0.114974D+02
     10   0.000000D+00
     11  -0.213018D+02
     12   0.511383D-02
     13  -0.316961D+02
     14   0.000000D+00
     15  -0.316957D+02
     16   0.000000D+00
     17   0.647195D-02
     18  -0.120504D+03
 At 1st pt F.D. properties file   722 does not exist.
 D2Numr ... symmetry will be used.
 Leave Link  106 at Thu Sep 12 14:17:39 2019, MaxMem= 26843545600 cpu:               1.5 elap:               0.1
 (Enter /sob/g16/l301.exe)
 Standard basis: DAug-CC-pVTZ (5D, 7F)
 Ernie: Thresh=  0.10000D-02 Tol=  0.10000D-05 Strict=F.
 Ernie:  3 primitive shells out of 76 were deleted.
 The following finite field(s) will be applied:
 An electric field of              0.0003  0.0000  0.0000
   158 basis functions,   203 primitive gaussians,   180 cartesian basis functions
     5 alpha electrons        5 beta electrons
       nuclear repulsion energy        11.9505442408 Hartrees.
 IExCor= 1009 DFT=T Ex+Corr=PBE1PBE ExCW=0 ScaHFX=  0.250000
 ScaDFX=  0.750000  0.750000  1.000000  1.000000 ScalE2=  1.000000  1.000000
 IRadAn=      5 IRanWt=     -1 IRanGd=            0 ICorTp=0 IEmpDi=  4
 NAtoms=    4 NActive=    4 NUniq=    4 SFac= 1.00D+00 NAtFMM=   60 NAOKFM=F Big=F
 Integral buffers will be    131072 words long.
 Raffenetti 2 integral format.
 Two-electron integral symmetry is turned off.
 Leave Link  301 at Thu Sep 12 14:17:39 2019, MaxMem= 26843545600 cpu:               1.4 elap:               0.1
 (Enter /sob/g16/l302.exe)
 NPDir=0 NMtPBC=     1 NCelOv=     1 NCel=       1 NClECP=     1 NCelD=      1
         NCelK=      1 NCelE2=     1 NClLst=     1 CellRange=     0.0.
 One-electron integrals computed using PRISM.
 NBasis=   158 RedAO= T EigKep=  1.64D-05  NBF=   158
 NBsUse=   158 1.00D-06 EigRej= -1.00D+00 NBFU=   158
 Precomputing XC quadrature grid using
 IXCGrd= 4 IRadAn=           5 IRanWt=          -1 IRanGd=           0 AccXCQ= 0.00D+00.
 Generated NRdTot=       0 NPtTot=           0 NUsed=           0 NTot=          32
 NSgBfM=   180   180   180   180   180 MxSgAt=     4 MxSgA2=     4.
 Leave Link  302 at Thu Sep 12 14:17:39 2019, MaxMem= 26843545600 cpu:               8.1 elap:               0.2
 (Enter /sob/g16/l303.exe)
 DipDrv:  MaxL=1.
 The nuclear repulsion energy is now        11.9505442408 hartrees.
 Leave Link  303 at Thu Sep 12 14:17:39 2019, MaxMem= 26843545600 cpu:               0.8 elap:               0.0
 (Enter /sob/g16/l401.exe)
 Initial guess from the checkpoint file:  "/sob2/gauscr/Gau-2640.chk"
 B after Tr=     0.000000    0.000000    0.000000
         Rot=    1.000000    0.000000    0.000000    0.000000 Ang=   0.00 deg.
 Guess basis will be translated and rotated to current coordinates.
 JPrj=2 DoOrth=T DoCkMO=T.
 Leave Link  401 at Thu Sep 12 14:17:40 2019, MaxMem= 26843545600 cpu:               3.0 elap:               0.1
 (Enter /sob/g16/l502.exe)
 Keep R1 ints in memory in canonical form, NReq=115185797.
 FoFCou: FMM=F IPFlag=           0 FMFlag=           0 FMFlg1=           0
         NFxFlg=           0 DoJE=F BraDBF=F KetDBF=F FulRan=T
         wScrn=  0.000000 ICntrl=       600 IOpCl=  0 I1Cent=           0 NGrid=           0
         NMat0=    1 NMatS0=  12561 NMatT0=    0 NMatD0=    1 NMtDS0=    0 NMtDT0=    0
 Symmetry not used in FoFCou.
 Two-electron integral symmetry not used.
 Closed shell SCF:
 Using DIIS extrapolation, IDIIS=  1040.
 NGot= 26843545600 LenX= 26764577491 LenY= 26764544650
 Requested convergence on RMS density matrix=1.00D-08 within 128 cycles.
 Requested convergence on MAX density matrix=1.00D-06.
 Requested convergence on             energy=1.00D-06.
 No special actions if energy rises.

 Cycle   1  Pass 1  IDiag  1:
 E= -56.5157778205978    
 DIIS: error= 9.43D-05 at cycle   1 NSaved=   1.
 NSaved= 1 IEnMin= 1 EnMin= -56.5157778205978     IErMin= 1 ErrMin= 9.43D-05
 ErrMax= 9.43D-05  0.00D+00 EMaxC= 1.00D-01 BMatC= 3.12D-07 BMatP= 3.12D-07
 IDIUse=1 WtCom= 1.00D+00 WtEn= 0.00D+00
 Coeff-Com:  0.100D+01
 Coeff:      0.100D+01
 Gap=     0.334 Goal=   None    Shift=    0.000
 RMSDP=4.92D-06 MaxDP=8.53D-05              OVMax= 5.56D-04

 Cycle   2  Pass 1  IDiag  1:
 E= -56.5157784915521     Delta-E=       -0.000000670954 Rises=F Damp=F
 DIIS: error= 2.99D-05 at cycle   2 NSaved=   2.
 NSaved= 2 IEnMin= 2 EnMin= -56.5157784915521     IErMin= 2 ErrMin= 2.99D-05
 ErrMax= 2.99D-05  0.00D+00 EMaxC= 1.00D-01 BMatC= 8.67D-08 BMatP= 3.12D-07
 IDIUse=1 WtCom= 1.00D+00 WtEn= 0.00D+00
 Coeff-Com:  0.320D+00 0.680D+00
 Coeff:      0.320D+00 0.680D+00
 Gap=     0.273 Goal=   None    Shift=    0.000
 RMSDP=1.17D-06 MaxDP=3.61D-05 DE=-6.71D-07 OVMax= 1.07D-04

 Cycle   3  Pass 1  IDiag  1:
 E= -56.5157785852593     Delta-E=       -0.000000093707 Rises=F Damp=F
 DIIS: error= 3.00D-06 at cycle   3 NSaved=   3.
 NSaved= 3 IEnMin= 3 EnMin= -56.5157785852593     IErMin= 3 ErrMin= 3.00D-06
 ErrMax= 3.00D-06  0.00D+00 EMaxC= 1.00D-01 BMatC= 1.00D-09 BMatP= 8.67D-08
 IDIUse=1 WtCom= 1.00D+00 WtEn= 0.00D+00
 Coeff-Com:  0.524D-02 0.572D-01 0.938D+00
 Coeff:      0.524D-02 0.572D-01 0.938D+00
 Gap=     0.273 Goal=   None    Shift=    0.000
 RMSDP=5.90D-07 MaxDP=2.15D-05 DE=-9.37D-08 OVMax= 1.60D-05

 Cycle   4  Pass 1  IDiag  1:
 E= -56.5157785860262     Delta-E=       -0.000000000767 Rises=F Damp=F
 DIIS: error= 3.74D-07 at cycle   4 NSaved=   4.
 NSaved= 4 IEnMin= 4 EnMin= -56.5157785860262     IErMin= 4 ErrMin= 3.74D-07
 ErrMax= 3.74D-07  0.00D+00 EMaxC= 1.00D-01 BMatC= 7.10D-12 BMatP= 1.00D-09
 IDIUse=1 WtCom= 1.00D+00 WtEn= 0.00D+00
 Coeff-Com: -0.315D-02-0.334D-02 0.214D-01 0.985D+00
 Coeff:     -0.315D-02-0.334D-02 0.214D-01 0.985D+00
 Gap=     0.273 Goal=   None    Shift=    0.000
 RMSDP=4.77D-08 MaxDP=1.29D-06 DE=-7.67D-10 OVMax= 2.75D-06

 Cycle   5  Pass 1  IDiag  1:
 E= -56.5157785860392     Delta-E=       -0.000000000013 Rises=F Damp=F
 DIIS: error= 1.37D-07 at cycle   5 NSaved=   5.
 NSaved= 5 IEnMin= 5 EnMin= -56.5157785860392     IErMin= 5 ErrMin= 1.37D-07
 ErrMax= 1.37D-07  0.00D+00 EMaxC= 1.00D-01 BMatC= 1.12D-12 BMatP= 7.10D-12
 IDIUse=1 WtCom= 1.00D+00 WtEn= 0.00D+00
 Coeff-Com: -0.771D-03-0.122D-02 0.105D-02 0.235D+00 0.766D+00
 Coeff:     -0.771D-03-0.122D-02 0.105D-02 0.235D+00 0.766D+00
 Gap=     0.273 Goal=   None    Shift=    0.000
 RMSDP=8.97D-09 MaxDP=2.25D-07 DE=-1.30D-11 OVMax= 6.06D-07

 SCF Done:  E(RPBE1PBE) =  -56.5157785860     A.U. after    5 cycles
            NFock=  5  Conv=0.90D-08     -V/T= 2.0062
 KE= 5.616631604893D+01 PE=-1.558337767008D+02 EE= 3.120113782498D+01
 Leave Link  502 at Thu Sep 12 14:17:41 2019, MaxMem= 26843545600 cpu:              41.1 elap:               1.7
 (Enter /sob/g16/l801.exe)
 DoSCS=F DFT=T ScalE2(SS,OS)=  1.000000  1.000000
 Range of M.O.s used for correlation:     1   158
 NBasis=   158 NAE=     5 NBE=     5 NFC=     0 NFV=     0
 NROrb=    158 NOA=     5 NOB=     5 NVA=   153 NVB=   153

 **** Warning!!: The largest alpha MO coefficient is  0.81850861D+02

 Leave Link  801 at Thu Sep 12 14:17:41 2019, MaxMem= 26843545600 cpu:               0.6 elap:               0.0
 (Enter /sob/g16/l1002.exe)
 Minotr:  Closed shell wavefunction.
          Direct CPHF calculation.
          Differentiating once with respect to electric field.
                with respect to dipole field.
          Electric field/nuclear overlap derivatives assumed to be zero.
          Requested convergence is 1.0D-08 RMS, and 1.0D-07 maximum.
          NewPWx=F KeepS1=T KeepF1=T KeepIn=T MapXYZ=F SortEE=F KeepMc=T.
         1893 words used for storage of precomputed grid.
 Keep R1 and R3 ints in memory in canonical form, NReq=194010379.
 FoFCou: FMM=F IPFlag=           0 FMFlag=           0 FMFlg1=           0
         NFxFlg=           0 DoJE=F BraDBF=F KetDBF=F FulRan=T
         wScrn=  0.000000 ICntrl=       600 IOpCl=  0 I1Cent=           0 NGrid=           0
         NMat0=    1 NMatS0=  12561 NMatT0=    0 NMatD0=    1 NMtDS0=    0 NMtDT0=    0
 Symmetry not used in FoFCou.
 Two-electron integral symmetry not used.
          MDV=   26843545600 using IRadAn=       4.
          Solving linear equations separately, MaxMat=       0.
          Doing perturbations at frequencies    0.000000    0.067005    0.085645    0.134010    0.171291
          There are    15 degrees of freedom in the 1st order CPHF.  IDoFFX=0 NUNeed=    15.
 LinEq1:  Iter=  0 NonCon=    15 RMS=1.61D-01 Max=4.38D+00 NDo=    15
 AX will form    15 AO Fock derivatives at one time.
 LinEq1:  Iter=  1 NonCon=    15 RMS=6.61D-02 Max=1.01D+00 NDo=    15
 LinEq1:  Iter=  2 NonCon=    15 RMS=4.72D-02 Max=7.40D-01 NDo=    15
 LinEq1:  Iter=  3 NonCon=    15 RMS=1.35D-02 Max=1.58D-01 NDo=    15
 LinEq1:  Iter=  4 NonCon=    15 RMS=2.42D-03 Max=4.95D-02 NDo=    15
 LinEq1:  Iter=  5 NonCon=    15 RMS=2.08D-04 Max=2.45D-03 NDo=    15
 LinEq1:  Iter=  6 NonCon=    15 RMS=2.17D-05 Max=2.88D-04 NDo=    15
 LinEq1:  Iter=  7 NonCon=    15 RMS=3.70D-06 Max=9.68D-05 NDo=    15
 LinEq1:  Iter=  8 NonCon=    14 RMS=8.16D-07 Max=1.22D-05 NDo=    15
 LinEq1:  Iter=  9 NonCon=    10 RMS=2.96D-07 Max=2.42D-06 NDo=    14
 LinEq1:  Iter= 10 NonCon=     2 RMS=3.67D-08 Max=2.77D-07 NDo=    10
 LinEq1:  Iter= 11 NonCon=     0 RMS=4.79D-09 Max=3.37D-08 NDo=     2
 Linear equations converged to 1.000D-08 1.000D-07 after    11 iterations.
 FullF1:  Do perturbations      1 to      15.
 SCF Polarizability for W=    0.000000:
                1             2             3 
      1  0.137781D+02
      2 -0.274444D-02  0.137780D+02
      3 -0.354241D-02 -0.604840D-05  0.156389D+02
 Isotropic polarizability for W=    0.000000       14.40 Bohr**3.
 SCF Polarizability for W=    0.067005:
                1             2             3 
      1  0.140078D+02
      2 -0.291415D-02  0.140077D+02
      3 -0.410619D-02 -0.620127D-05  0.162356D+02
 Isotropic polarizability for W=    0.067005       14.75 Bohr**3.
 SCF Polarizability for W=    0.085645:
                1             2             3 
      1  0.141597D+02
      2 -0.303236D-02  0.141596D+02
      3 -0.454673D-02 -0.618430D-05  0.166618D+02
 Isotropic polarizability for W=    0.085645       14.99 Bohr**3.
 SCF Polarizability for W=    0.134010:
                1             2             3 
      1  0.147761D+02
      2 -0.357007D-02  0.147759D+02
      3 -0.715900D-02 -0.419242D-05  0.187449D+02
 Isotropic polarizability for W=    0.134010       16.10 Bohr**3.
 SCF Polarizability for W=    0.171291:
                1             2             3 
      1  0.155447D+02
      2 -0.441155D-02  0.155445D+02
      3 -0.141530D-01  0.111136D-04  0.227377D+02
 Isotropic polarizability for W=    0.171291       17.94 Bohr**3.
 SCF Static Hyperpolarizability:
 K=  1 block:
                1 
      1  0.755019D+00
 K=  2 block:
                1             2 
      1 -0.823491D+01
      2  0.251664D+00  0.823398D+01
 K=  3 block:
                1             2             3 
      1 -0.106318D+02
      2  0.348489D-01 -0.106303D+02
      3  0.791784D+00  0.202027D-02 -0.370878D+02
 SCF Beta(-W,W;0) for W=    0.067005:
 K=  1 block:
                1             2             3 
      1  0.830939D+00
      2 -0.874414D+01  0.273464D+00
      3 -0.123234D+02  0.437474D-01  0.100675D+01
 K=  2 block:
                1             2             3 
      1 -0.874415D+01
      2  0.278720D+00  0.874308D+01
      3  0.437465D-01 -0.123215D+02  0.239671D-02
 K=  3 block:
                1             2             3 
      1 -0.118357D+02
      2  0.414423D-01 -0.118339D+02
      3  0.941810D+00  0.233418D-02 -0.446162D+02
 SCF Beta(W,W;-2W) for W=    0.067005:
 K=  1 block:
                1             2             3 
      1  0.103058D+01
      2 -0.996800D+01  0.361786D+00
      3 -0.157052D+02  0.650917D-01  0.129769D+01
 K=  2 block:
                1             2             3 
      1 -0.996797D+01
      2  0.334365D+00  0.996654D+01
      3  0.650977D-01 -0.157019D+02  0.304197D-02
 K=  3 block:
                1             2             3 
      1 -0.186314D+02
      2  0.804393D-01 -0.186279D+02
      3  0.167806D+01  0.340151D-02 -0.691213D+02
 SCF Beta(-W,W;0) for W=    0.085645:
 K=  1 block:
                1             2             3 
      1  0.886141D+00
      2 -0.909888D+01  0.288946D+00
      3 -0.136455D+02  0.511663D-01  0.119219D+01
 K=  2 block:
                1             2             3 
      1 -0.909890D+01
      2  0.298576D+00  0.909772D+01
      3  0.511637D-01 -0.136434D+02  0.268697D-02
 K=  3 block:
                1             2             3 
      1 -0.127114D+02
      2  0.464843D-01 -0.127093D+02
      3  0.106054D+01  0.256564D-02 -0.506565D+02
 SCF Beta(W,W;-2W) for W=    0.085645:
 K=  1 block:
                1             2             3 
      1  0.132216D+01
      2 -0.114992D+02  0.494909D+00
      3 -0.213112D+02  0.107111D+00  0.193483D+01
 K=  2 block:
                1             2             3 
      1 -0.114990D+02
      2  0.413561D+00  0.114969D+02
      3  0.107141D+00 -0.213038D+02  0.384894D-02
 K=  3 block:
                1             2             3 
      1 -0.317103D+02
      2  0.172330D+00 -0.317023D+02
      3  0.337751D+01  0.496472D-02 -0.120531D+03
 SCF Beta(-W,W;0) for W=    0.134010:
 K=  1 block:
                1             2             3 
      1  0.116275D+01
      2 -0.107126D+02  0.362064D+00
      3 -0.214869D+02  0.102236D+00  0.259575D+01
 K=  2 block:
                1             2             3 
      1 -0.107127D+02
      2  0.400298D+00  0.107109D+02
      3  0.102204D+00 -0.214818D+02  0.427303D-02
 K=  3 block:
                1             2             3 
      1 -0.170646D+02
      2  0.744939D-01 -0.170604D+02
      3  0.178538D+01  0.372538D-02 -0.889450D+02
 SCF Beta(-W,W;0) for W=    0.171291:
 K=  1 block:
                1             2             3 
      1  0.169347D+01
      2 -0.132385D+02  0.483620D+00
      3 -0.424885D+02  0.280810D+00  0.873624D+01
 K=  2 block:
                1             2             3 
      1 -0.132388D+02
      2  0.604802D+00  0.132352D+02
      3  0.280552D+00 -0.424677D+02  0.625166D-02
 K=  3 block:
                1             2             3 
      1 -0.249783D+02
      2  0.137191D+00 -0.249663D+02
      3  0.384981D+01  0.551097D-02 -0.209150D+03
 End of Minotr F.D. properties on file   721 Mask=      31 NFrqRd=     3 NDeriv=     1 ND12= 1 LenFil=     140:
 Frequencies=    0.000000    0.067005    0.085645
 Property number 1 -- Alpha(-w,w) frequency  1    0.000000:
                 1             2             3 
      1   0.137781D+02 -0.274444D-02 -0.354241D-02
      2  -0.274444D-02  0.137780D+02 -0.604840D-05
      3  -0.354241D-02 -0.604840D-05  0.156389D+02
 Property number 1 -- Alpha(-w,w) frequency  2    0.067005:
                 1             2             3 
      1   0.140078D+02 -0.291415D-02 -0.410619D-02
      2  -0.291415D-02  0.140077D+02 -0.620127D-05
      3  -0.410619D-02 -0.620127D-05  0.162356D+02
 Property number 1 -- Alpha(-w,w) frequency  3    0.085645:
                 1             2             3 
      1   0.141597D+02 -0.303236D-02 -0.454673D-02
      2  -0.303236D-02  0.141596D+02 -0.618430D-05
      3  -0.454673D-02 -0.618430D-05  0.166618D+02
 Property number 5 -- Beta(-w,w,0) frequency  1    0.000000:
                 1 
      1   0.755019D+00
      2  -0.823491D+01
      3   0.251664D+00
      4  -0.106318D+02
      5   0.348489D-01
      6   0.791784D+00
      7  -0.823491D+01
      8   0.251664D+00
      9   0.823398D+01
     10   0.348489D-01
     11  -0.106303D+02
     12   0.202027D-02
     13  -0.106318D+02
     14   0.348489D-01
     15  -0.106303D+02
     16   0.791784D+00
     17   0.202027D-02
     18  -0.370878D+02
 Property number 5 -- Beta(-w,w,0) frequency  2    0.067005:
                 1 
      1   0.830939D+00
      2  -0.874414D+01
      3   0.273464D+00
      4  -0.123234D+02
      5   0.437474D-01
      6   0.100675D+01
      7  -0.874415D+01
      8   0.278720D+00
      9   0.874308D+01
     10   0.437465D-01
     11  -0.123215D+02
     12   0.239671D-02
     13  -0.118357D+02
     14   0.414423D-01
     15  -0.118339D+02
     16   0.941810D+00
     17   0.233418D-02
     18  -0.446162D+02
 Property number 5 -- Beta(-w,w,0) frequency  3    0.085645:
                 1 
      1   0.886141D+00
      2  -0.909888D+01
      3   0.288946D+00
      4  -0.136455D+02
      5   0.511663D-01
      6   0.119219D+01
      7  -0.909890D+01
      8   0.298576D+00
      9   0.909772D+01
     10   0.511637D-01
     11  -0.136434D+02
     12   0.268697D-02
     13  -0.127114D+02
     14   0.464843D-01
     15  -0.127093D+02
     16   0.106054D+01
     17   0.256564D-02
     18  -0.506565D+02
 Property number 6 -- Beta(w,w,-2w) frequency  1    0.000000:
                 1 
      1   0.755019D+00
      2  -0.823491D+01
      3   0.251664D+00
      4  -0.106318D+02
      5   0.348489D-01
      6   0.791784D+00
      7  -0.823491D+01
      8   0.251664D+00
      9   0.823398D+01
     10   0.348489D-01
     11  -0.106303D+02
     12   0.202027D-02
     13  -0.106318D+02
     14   0.348489D-01
     15  -0.106303D+02
     16   0.791784D+00
     17   0.202027D-02
     18  -0.370878D+02
 Property number 6 -- Beta(w,w,-2w) frequency  2    0.067005:
                 1 
      1   0.103058D+01
      2  -0.996800D+01
      3   0.361786D+00
      4  -0.157052D+02
      5   0.650917D-01
      6   0.129769D+01
      7  -0.996797D+01
      8   0.334365D+00
      9   0.996654D+01
     10   0.650977D-01
     11  -0.157019D+02
     12   0.304197D-02
     13  -0.186314D+02
     14   0.804393D-01
     15  -0.186279D+02
     16   0.167806D+01
     17   0.340151D-02
     18  -0.691213D+02
 Property number 6 -- Beta(w,w,-2w) frequency  3    0.085645:
                 1 
      1   0.132216D+01
      2  -0.114992D+02
      3   0.494909D+00
      4  -0.213112D+02
      5   0.107111D+00
      6   0.193483D+01
      7  -0.114990D+02
      8   0.413561D+00
      9   0.114969D+02
     10   0.107141D+00
     11  -0.213038D+02
     12   0.384894D-02
     13  -0.317103D+02
     14   0.172330D+00
     15  -0.317023D+02
     16   0.337751D+01
     17   0.496472D-02
     18  -0.120531D+03
 End of Minotr F.D. properties file   722 does not exist.
 End of Minotr F.D. properties file   788 does not exist.
 Leave Link 1002 at Thu Sep 12 14:18:10 2019, MaxMem= 26843545600 cpu:            1016.1 elap:              28.3
 (Enter /sob/g16/l601.exe)
 Copying SCF densities to generalized density rwf, IOpCl= 0 IROHF=0.

 **********************************************************************

            Population analysis using the SCF density.

 **********************************************************************

 Alpha  occ. eigenvalues --  -14.36259  -0.87811  -0.47644  -0.47633  -0.28387
 Alpha virt. eigenvalues --   -0.01071   0.01142   0.01255   0.02036   0.02637
 Alpha virt. eigenvalues --    0.03888   0.03917   0.05361   0.05409   0.06944
 Alpha virt. eigenvalues --    0.07058   0.07103   0.07583   0.10124   0.10256
 Alpha virt. eigenvalues --    0.10300   0.11553   0.11597   0.11637   0.16064
 Alpha virt. eigenvalues --    0.16460   0.16550   0.17720   0.17754   0.18556
 Alpha virt. eigenvalues --    0.18620   0.19112   0.19320   0.25007   0.25053
 Alpha virt. eigenvalues --    0.25537   0.27125   0.27196   0.28213   0.28244
 Alpha virt. eigenvalues --    0.33014   0.33034   0.34315   0.34669   0.34781
 Alpha virt. eigenvalues --    0.35482   0.37150   0.37261   0.37286   0.37593
 Alpha virt. eigenvalues --    0.37632   0.39792   0.39818   0.43092   0.44145
 Alpha virt. eigenvalues --    0.44170   0.50680   0.55573   0.55592   0.55803
 Alpha virt. eigenvalues --    0.57229   0.60774   0.60784   0.62402   0.65342
 Alpha virt. eigenvalues --    0.65398   0.66309   0.71432   0.71439   0.73500
 Alpha virt. eigenvalues --    0.73519   0.80419   0.86702   0.92054   0.92063
 Alpha virt. eigenvalues --    0.92894   1.02747   1.02759   1.05343   1.08688
 Alpha virt. eigenvalues --    1.08760   1.09357   1.12205   1.12242   1.13711
 Alpha virt. eigenvalues --    1.19806   1.19812   1.20276   1.24627   1.24653
 Alpha virt. eigenvalues --    1.27101   1.29551   1.29552   1.36086   1.45352
 Alpha virt. eigenvalues --    1.45360   1.56492   1.59182   1.59186   1.71893
 Alpha virt. eigenvalues --    1.77323   1.77326   1.80559   1.95348   1.96853
 Alpha virt. eigenvalues --    1.96858   2.07485   2.07522   2.25837   2.28809
 Alpha virt. eigenvalues --    2.34324   2.34334   2.40125   2.40935   2.40952
 Alpha virt. eigenvalues --    3.28770   3.50642   3.50657   3.75785   3.75800
 Alpha virt. eigenvalues --    3.79774   3.95391   3.95672   3.95680   4.01042
 Alpha virt. eigenvalues --    4.01046   4.09913   4.11314   4.18525   4.18542
 Alpha virt. eigenvalues --    4.29950   4.34177   4.34186   4.46451   4.57624
 Alpha virt. eigenvalues --    4.57630   4.68041   4.68061   4.71534   4.75025
 Alpha virt. eigenvalues --    4.90604   4.90609   5.02097   5.33551   5.33553
 Alpha virt. eigenvalues --    5.42993   5.59434   5.59442   5.70529   5.97226
 Alpha virt. eigenvalues --    5.97234   6.09643   6.27731   6.61306   6.61308
 Alpha virt. eigenvalues --    7.43188   7.43203  16.88300
 Electronic spatial extent (au):  <R**2>=             26.9131
 Charge=              0.0000 electrons
 Dipole moment (field-independent basis, Debye):
    X=             -0.0117    Y=              0.0000    Z=             -1.5182  Tot=              1.5183
 Quadrupole moment (field-independent basis, Debye-Ang):
   XX=             -6.3160   YY=             -6.3160   ZZ=             -9.4128
   XY=              0.0016   XZ=              0.0009   YZ=             -0.0000
 Traceless Quadrupole moment (field-independent basis, Debye-Ang):
   XX=              1.0322   YY=              1.0323   ZZ=             -2.0645
   XY=              0.0016   XZ=              0.0009   YZ=             -0.0000
 Octapole moment (field-independent basis, Debye-Ang**2):
  XXX=             -0.0227  YYY=              0.9575  ZZZ=             -1.1903  XYY=             -0.0076
  XXY=             -0.9575  XXZ=             -0.8475  XZZ=             -0.0092  YZZ=              0.0000
  YYZ=             -0.8475  XYZ=             -0.0007
 Hexadecapole moment (field-independent basis, Debye-Ang**3):
 XXXX=            -10.4896 YYYY=            -10.4895 ZZZZ=            -13.2631 XXXY=              0.0047
 XXXZ=              0.0027 YYYX=              0.0015 YYYZ=             -0.3415 ZZZX=              0.0007
 ZZZY=             -0.0000 XXYY=             -3.4965 XXZZ=             -4.1253 YYZZ=             -4.1252
 XXYZ=              0.3415 YYXZ=              0.0009 ZZXY=              0.0008
 N-N= 1.195054424083D+01 E-N=-1.558337658307D+02  KE= 5.616631604893D+01
  Exact polarizability:  13.778  -0.003  13.778  -0.004  -0.000  15.639
 Approx polarizability:  16.609  -0.003  16.609  -0.007   0.000  17.167
 No NMR shielding tensors so no spin-rotation constants.
 Leave Link  601 at Thu Sep 12 14:18:10 2019, MaxMem= 26843545600 cpu:              11.9 elap:               0.4
 (Enter /sob/g16/l106.exe)
 NDeriv=      3 NFrqRd=  3 NDerD0=      0 MskFDP=      31 MskDFD=      31 MskDF0=       0
 Re-enter D2Numr:  atom   0 IXYZ=1 step-up   number 1
 Skip step-back as it is equivalent to step-up.
 Leave Link  106 at Thu Sep 12 14:18:10 2019, MaxMem= 26843545600 cpu:               2.9 elap:               0.1
 (Enter /sob/g16/l301.exe)
 Standard basis: DAug-CC-pVTZ (5D, 7F)
 Ernie: Thresh=  0.10000D-02 Tol=  0.10000D-05 Strict=F.
 Ernie:  3 primitive shells out of 76 were deleted.
 The following finite field(s) will be applied:
 An electric field of              0.0000  0.0003  0.0000
   158 basis functions,   203 primitive gaussians,   180 cartesian basis functions
     5 alpha electrons        5 beta electrons
       nuclear repulsion energy        11.9505442408 Hartrees.
 IExCor= 1009 DFT=T Ex+Corr=PBE1PBE ExCW=0 ScaHFX=  0.250000
 ScaDFX=  0.750000  0.750000  1.000000  1.000000 ScalE2=  1.000000  1.000000
 IRadAn=      5 IRanWt=     -1 IRanGd=            0 ICorTp=0 IEmpDi=  4
 NAtoms=    4 NActive=    4 NUniq=    4 SFac= 1.00D+00 NAtFMM=   60 NAOKFM=F Big=F
 Integral buffers will be    131072 words long.
 Raffenetti 2 integral format.
 Two-electron integral symmetry is turned off.
 Leave Link  301 at Thu Sep 12 14:18:10 2019, MaxMem= 26843545600 cpu:               1.9 elap:               0.1
 (Enter /sob/g16/l302.exe)
 NPDir=0 NMtPBC=     1 NCelOv=     1 NCel=       1 NClECP=     1 NCelD=      1
         NCelK=      1 NCelE2=     1 NClLst=     1 CellRange=     0.0.
 One-electron integrals computed using PRISM.
 NBasis=   158 RedAO= T EigKep=  1.64D-05  NBF=   158
 NBsUse=   158 1.00D-06 EigRej= -1.00D+00 NBFU=   158
 Precomputing XC quadrature grid using
 IXCGrd= 4 IRadAn=           5 IRanWt=          -1 IRanGd=           0 AccXCQ= 0.00D+00.
 Generated NRdTot=       0 NPtTot=           0 NUsed=           0 NTot=          32
 NSgBfM=   180   180   180   180   180 MxSgAt=     4 MxSgA2=     4.
 Leave Link  302 at Thu Sep 12 14:18:10 2019, MaxMem= 26843545600 cpu:               8.0 elap:               0.2
 (Enter /sob/g16/l303.exe)
 DipDrv:  MaxL=1.
 The nuclear repulsion energy is now        11.9505442408 hartrees.
 Leave Link  303 at Thu Sep 12 14:18:10 2019, MaxMem= 26843545600 cpu:               1.0 elap:               0.1
 (Enter /sob/g16/l401.exe)
 Initial guess from the checkpoint file:  "/sob2/gauscr/Gau-2640.chk"
 B after Tr=     0.000000    0.000000    0.000000
         Rot=    1.000000    0.000000    0.000000    0.000000 Ang=   0.00 deg.
 Guess basis will be translated and rotated to current coordinates.
 JPrj=2 DoOrth=T DoCkMO=T.
 Leave Link  401 at Thu Sep 12 14:18:11 2019, MaxMem= 26843545600 cpu:               2.8 elap:               0.1
 (Enter /sob/g16/l502.exe)
 Keep R1 ints in memory in canonical form, NReq=115185797.
 FoFCou: FMM=F IPFlag=           0 FMFlag=           0 FMFlg1=           0
         NFxFlg=           0 DoJE=F BraDBF=F KetDBF=F FulRan=T
         wScrn=  0.000000 ICntrl=       600 IOpCl=  0 I1Cent=           0 NGrid=           0
         NMat0=    1 NMatS0=  12561 NMatT0=    0 NMatD0=    1 NMtDS0=    0 NMtDT0=    0
 Symmetry not used in FoFCou.
 Two-electron integral symmetry not used.
 Closed shell SCF:
 Using DIIS extrapolation, IDIIS=  1040.
 NGot= 26843545600 LenX= 26764577491 LenY= 26764544650
 Requested convergence on RMS density matrix=1.00D-08 within 128 cycles.
 Requested convergence on MAX density matrix=1.00D-06.
 Requested convergence on             energy=1.00D-06.
 No special actions if energy rises.

 Cycle   1  Pass 1  IDiag  1:
 E= -56.5157778205980    
 DIIS: error= 9.43D-05 at cycle   1 NSaved=   1.
 NSaved= 1 IEnMin= 1 EnMin= -56.5157778205980     IErMin= 1 ErrMin= 9.43D-05
 ErrMax= 9.43D-05  0.00D+00 EMaxC= 1.00D-01 BMatC= 3.12D-07 BMatP= 3.12D-07
 IDIUse=1 WtCom= 1.00D+00 WtEn= 0.00D+00
 Coeff-Com:  0.100D+01
 Coeff:      0.100D+01
 Gap=     0.334 Goal=   None    Shift=    0.000
 RMSDP=4.90D-06 MaxDP=9.85D-05              OVMax= 5.74D-04

 Cycle   2  Pass 1  IDiag  1:
 E= -56.5157784915916     Delta-E=       -0.000000670994 Rises=F Damp=F
 DIIS: error= 2.99D-05 at cycle   2 NSaved=   2.
 NSaved= 2 IEnMin= 2 EnMin= -56.5157784915916     IErMin= 2 ErrMin= 2.99D-05
 ErrMax= 2.99D-05  0.00D+00 EMaxC= 1.00D-01 BMatC= 8.67D-08 BMatP= 3.12D-07
 IDIUse=1 WtCom= 1.00D+00 WtEn= 0.00D+00
 Coeff-Com:  0.320D+00 0.680D+00
 Coeff:      0.320D+00 0.680D+00
 Gap=     0.273 Goal=   None    Shift=    0.000
 RMSDP=1.17D-06 MaxDP=4.17D-05 DE=-6.71D-07 OVMax= 1.16D-04

 Cycle   3  Pass 1  IDiag  1:
 E= -56.5157785853413     Delta-E=       -0.000000093750 Rises=F Damp=F
 DIIS: error= 3.01D-06 at cycle   3 NSaved=   3.
 NSaved= 3 IEnMin= 3 EnMin= -56.5157785853413     IErMin= 3 ErrMin= 3.01D-06
 ErrMax= 3.01D-06  0.00D+00 EMaxC= 1.00D-01 BMatC= 1.00D-09 BMatP= 8.67D-08
 IDIUse=1 WtCom= 1.00D+00 WtEn= 0.00D+00
 Coeff-Com:  0.525D-02 0.572D-01 0.938D+00
 Coeff:      0.525D-02 0.572D-01 0.938D+00
 Gap=     0.273 Goal=   None    Shift=    0.000
 RMSDP=5.89D-07 MaxDP=2.48D-05 DE=-9.37D-08 OVMax= 1.60D-05

 Cycle   4  Pass 1  IDiag  1:
 E= -56.5157785861087     Delta-E=       -0.000000000767 Rises=F Damp=F
 DIIS: error= 3.74D-07 at cycle   4 NSaved=   4.
 NSaved= 4 IEnMin= 4 EnMin= -56.5157785861087     IErMin= 4 ErrMin= 3.74D-07
 ErrMax= 3.74D-07  0.00D+00 EMaxC= 1.00D-01 BMatC= 7.10D-12 BMatP= 1.00D-09
 IDIUse=1 WtCom= 1.00D+00 WtEn= 0.00D+00
 Coeff-Com: -0.315D-02-0.334D-02 0.214D-01 0.985D+00
 Coeff:     -0.315D-02-0.334D-02 0.214D-01 0.985D+00
 Gap=     0.273 Goal=   None    Shift=    0.000
 RMSDP=4.70D-08 MaxDP=1.32D-06 DE=-7.67D-10 OVMax= 2.75D-06

 Cycle   5  Pass 1  IDiag  1:
 E= -56.5157785861217     Delta-E=       -0.000000000013 Rises=F Damp=F
 DIIS: error= 1.37D-07 at cycle   5 NSaved=   5.
 NSaved= 5 IEnMin= 5 EnMin= -56.5157785861217     IErMin= 5 ErrMin= 1.37D-07
 ErrMax= 1.37D-07  0.00D+00 EMaxC= 1.00D-01 BMatC= 1.12D-12 BMatP= 7.10D-12
 IDIUse=1 WtCom= 1.00D+00 WtEn= 0.00D+00
 Coeff-Com: -0.770D-03-0.122D-02 0.103D-02 0.235D+00 0.766D+00
 Coeff:     -0.770D-03-0.122D-02 0.103D-02 0.235D+00 0.766D+00
 Gap=     0.273 Goal=   None    Shift=    0.000
 RMSDP=8.93D-09 MaxDP=2.25D-07 DE=-1.30D-11 OVMax= 6.06D-07

 SCF Done:  E(RPBE1PBE) =  -56.5157785861     A.U. after    5 cycles
            NFock=  5  Conv=0.89D-08     -V/T= 2.0062
 KE= 5.616631604668D+01 PE=-1.558337766971D+02 EE= 3.120113782348D+01
 Leave Link  502 at Thu Sep 12 14:18:25 2019, MaxMem= 26843545600 cpu:             295.7 elap:              14.2
 (Enter /sob/g16/l801.exe)
 DoSCS=F DFT=T ScalE2(SS,OS)=  1.000000  1.000000
 Range of M.O.s used for correlation:     1   158
 NBasis=   158 NAE=     5 NBE=     5 NFC=     0 NFV=     0
 NROrb=    158 NOA=     5 NOB=     5 NVA=   153 NVB=   153

 **** Warning!!: The largest alpha MO coefficient is  0.84611748D+02

 Leave Link  801 at Thu Sep 12 14:18:25 2019, MaxMem= 26843545600 cpu:               0.9 elap:               0.1
 (Enter /sob/g16/l1002.exe)
 Minotr:  Closed shell wavefunction.
          Direct CPHF calculation.
          Differentiating once with respect to electric field.
                with respect to dipole field.
          Electric field/nuclear overlap derivatives assumed to be zero.
          Requested convergence is 1.0D-08 RMS, and 1.0D-07 maximum.
          NewPWx=F KeepS1=T KeepF1=T KeepIn=T MapXYZ=F SortEE=F KeepMc=T.
         1893 words used for storage of precomputed grid.
 Keep R1 and R3 ints in memory in canonical form, NReq=194010379.
 FoFCou: FMM=F IPFlag=           0 FMFlag=           0 FMFlg1=           0
         NFxFlg=           0 DoJE=F BraDBF=F KetDBF=F FulRan=T
         wScrn=  0.000000 ICntrl=       600 IOpCl=  0 I1Cent=           0 NGrid=           0
         NMat0=    1 NMatS0=  12561 NMatT0=    0 NMatD0=    1 NMtDS0=    0 NMtDT0=    0
 Symmetry not used in FoFCou.
 Two-electron integral symmetry not used.
          MDV=   26843545600 using IRadAn=       4.
          Solving linear equations separately, MaxMat=       0.
          Doing perturbations at frequencies    0.000000    0.067005    0.085645    0.134010    0.171291
          There are    15 degrees of freedom in the 1st order CPHF.  IDoFFX=0 NUNeed=    15.
 LinEq1:  Iter=  0 NonCon=    15 RMS=1.61D-01 Max=4.38D+00 NDo=    15
 AX will form    15 AO Fock derivatives at one time.
 LinEq1:  Iter=  1 NonCon=    15 RMS=6.61D-02 Max=1.01D+00 NDo=    15
 LinEq1:  Iter=  2 NonCon=    15 RMS=4.72D-02 Max=7.40D-01 NDo=    15
 LinEq1:  Iter=  3 NonCon=    15 RMS=1.35D-02 Max=1.58D-01 NDo=    15
 LinEq1:  Iter=  4 NonCon=    15 RMS=2.42D-03 Max=4.95D-02 NDo=    15
 LinEq1:  Iter=  5 NonCon=    15 RMS=2.08D-04 Max=2.45D-03 NDo=    15
 LinEq1:  Iter=  6 NonCon=    15 RMS=2.18D-05 Max=2.89D-04 NDo=    15
 LinEq1:  Iter=  7 NonCon=    14 RMS=3.66D-06 Max=9.70D-05 NDo=    15
 LinEq1:  Iter=  8 NonCon=    10 RMS=6.22D-07 Max=9.99D-06 NDo=    14
 LinEq1:  Iter=  9 NonCon=     5 RMS=7.13D-08 Max=5.72D-07 NDo=    10
 LinEq1:  Iter= 10 NonCon=     2 RMS=2.06D-08 Max=1.78D-07 NDo=     5
 LinEq1:  Iter= 11 NonCon=     0 RMS=3.19D-09 Max=3.31D-08 NDo=     2
 Linear equations converged to 1.000D-08 1.000D-07 after    11 iterations.
 FullF1:  Do perturbations      1 to      15.
 SCF Polarizability for W=    0.000000:
                1             2             3 
      1  0.137753D+02
      2  0.000000D+00  0.137808D+02
      3  0.000000D+00 -0.355990D-02  0.156389D+02
 Isotropic polarizability for W=    0.000000       14.40 Bohr**3.
 SCF Polarizability for W=    0.067005:
                1             2             3 
      1  0.140048D+02
      2  0.000000D+00  0.140107D+02
      3  0.000000D+00 -0.412677D-02  0.162356D+02
 Isotropic polarizability for W=    0.067005       14.75 Bohr**3.
 SCF Polarizability for W=    0.085645:
                1             2             3 
      1  0.141566D+02
      2  0.000000D+00  0.141627D+02
      3  0.000000D+00 -0.456985D-02  0.166618D+02
 Isotropic polarizability for W=    0.085645       14.99 Bohr**3.
 SCF Polarizability for W=    0.134010:
                1             2             3 
      1  0.147724D+02
      2  0.000000D+00  0.147796D+02
      3  0.000000D+00 -0.719711D-02  0.187449D+02
 Isotropic polarizability for W=    0.134010       16.10 Bohr**3.
 SCF Polarizability for W=    0.171291:
                1             2             3 
      1  0.155401D+02
      2  0.000000D+00  0.155491D+02
      3  0.000000D+00 -0.142352D-01  0.227377D+02
 Isotropic polarizability for W=    0.171291       17.94 Bohr**3.
 SCF Static Hyperpolarizability:
 K=  1 block:
                1 
      1  0.000000D+00
 K=  2 block:
                1             2 
      1 -0.798293D+01
      2  0.000000D+00  0.898991D+01
 K=  3 block:
                1             2             3 
      1 -0.105962D+02
      2  0.000000D+00 -0.106660D+02
      3  0.000000D+00  0.794111D+00 -0.370879D+02
 SCF Beta(-W,W;0) for W=    0.067005:
 K=  1 block:
                1             2             3 
      1  0.000000D+00
      2 -0.846503D+01  0.000000D+00
      3 -0.122785D+02  0.000000D+00  0.000000D+00
 K=  2 block:
                1             2             3 
      1 -0.847030D+01
      2  0.000000D+00  0.957512D+01
      3  0.000000D+00 -0.123664D+02  0.100956D+01
 K=  3 block:
                1             2             3 
      1 -0.117932D+02
      2  0.000000D+00 -0.118764D+02
      3  0.000000D+00  0.944580D+00 -0.446163D+02
 SCF Beta(W,W;-2W) for W=    0.067005:
 K=  1 block:
                1             2             3 
      1  0.000000D+00
      2 -0.963303D+01  0.000000D+00
      3 -0.156376D+02  0.000000D+00  0.000000D+00
 K=  2 block:
                1             2             3 
      1 -0.960553D+01
      2  0.000000D+00  0.109988D+02
      3  0.000000D+00 -0.157695D+02  0.130174D+01
 K=  3 block:
                1             2             3 
      1 -0.185482D+02
      2  0.000000D+00 -0.187109D+02
      3  0.000000D+00  0.168238D+01 -0.691214D+02
 SCF Beta(-W,W;0) for W=    0.085645:
 K=  1 block:
                1             2             3 
      1  0.000000D+00
      2 -0.879986D+01  0.000000D+00
      3 -0.135929D+02  0.000000D+00  0.000000D+00
 K=  2 block:
                1             2             3 
      1 -0.880952D+01
      2  0.000000D+00  0.998512D+01
      3  0.000000D+00 -0.136960D+02  0.119537D+01
 K=  3 block:
                1             2             3 
      1 -0.126636D+02
      2  0.000000D+00 -0.127572D+02
      3  0.000000D+00  0.106366D+01 -0.506566D+02
 SCF Beta(W,W;-2W) for W=    0.085645:
 K=  1 block:
                1             2             3 
      1  0.000000D+00
      2 -0.110845D+02  0.000000D+00
      3 -0.211975D+02  0.000000D+00  0.000000D+00
 K=  2 block:
                1             2             3 
      1 -0.110030D+02
      2  0.000000D+00  0.128221D+02
      3  0.000000D+00 -0.214174D+02  0.194126D+01
 K=  3 block:
                1             2             3 
      1 -0.315304D+02
      2  0.000000D+00 -0.318813D+02
      3  0.000000D+00  0.338520D+01 -0.120531D+03
 SCF Beta(-W,W;0) for W=    0.134010:
 K=  1 block:
                1             2             3 
      1  0.000000D+00
      2 -0.103115D+02  0.000000D+00
      3 -0.213803D+02  0.000000D+00  0.000000D+00
 K=  2 block:
                1             2             3 
      1 -0.103498D+02
      2  0.000000D+00  0.118759D+02
      3  0.000000D+00 -0.215881D+02  0.260130D+01
 K=  3 block:
                1             2             3 
      1 -0.169868D+02
      2  0.000000D+00 -0.171383D+02
      3  0.000000D+00  0.179068D+01 -0.889451D+02
 SCF Beta(-W,W;0) for W=    0.171291:
 K=  1 block:
                1             2             3 
      1  0.000000D+00
      2 -0.126318D+02  0.000000D+00
      3 -0.421874D+02  0.000000D+00  0.000000D+00
 K=  2 block:
                1             2             3 
      1 -0.127532D+02
      2  0.000000D+00  0.149338D+02
      3  0.000000D+00 -0.427671D+02  0.874955D+01
 K=  3 block:
                1             2             3 
      1 -0.248302D+02
      2  0.000000D+00 -0.251147D+02
      3  0.000000D+00  0.386197D+01 -0.209149D+03
 End of Minotr F.D. properties on file   721 Mask=      31 NFrqRd=     3 NDeriv=     1 ND12= 1 LenFil=     140:
 Frequencies=    0.000000    0.067005    0.085645
 Property number 1 -- Alpha(-w,w) frequency  1    0.000000:
                 1             2             3 
      1   0.137753D+02  0.000000D+00  0.000000D+00
      2   0.000000D+00  0.137808D+02 -0.355990D-02
      3   0.000000D+00 -0.355990D-02  0.156389D+02
 Property number 1 -- Alpha(-w,w) frequency  2    0.067005:
                 1             2             3 
      1   0.140048D+02  0.000000D+00  0.000000D+00
      2   0.000000D+00  0.140107D+02 -0.412677D-02
      3   0.000000D+00 -0.412677D-02  0.162356D+02
 Property number 1 -- Alpha(-w,w) frequency  3    0.085645:
                 1             2             3 
      1   0.141566D+02  0.000000D+00  0.000000D+00
      2   0.000000D+00  0.141627D+02 -0.456985D-02
      3   0.000000D+00 -0.456985D-02  0.166618D+02
 Property number 5 -- Beta(-w,w,0) frequency  1    0.000000:
                 1 
      1   0.000000D+00
      2  -0.798293D+01
      3   0.000000D+00
      4  -0.105962D+02
      5   0.000000D+00
      6   0.000000D+00
      7  -0.798293D+01
      8   0.000000D+00
      9   0.898991D+01
     10   0.000000D+00
     11  -0.106660D+02
     12   0.794111D+00
     13  -0.105962D+02
     14   0.000000D+00
     15  -0.106660D+02
     16   0.000000D+00
     17   0.794111D+00
     18  -0.370879D+02
 Property number 5 -- Beta(-w,w,0) frequency  2    0.067005:
                 1 
      1   0.000000D+00
      2  -0.846503D+01
      3   0.000000D+00
      4  -0.122785D+02
      5   0.000000D+00
      6   0.000000D+00
      7  -0.847030D+01
      8   0.000000D+00
      9   0.957512D+01
     10   0.000000D+00
     11  -0.123664D+02
     12   0.100956D+01
     13  -0.117932D+02
     14   0.000000D+00
     15  -0.118764D+02
     16   0.000000D+00
     17   0.944580D+00
     18  -0.446163D+02
 Property number 5 -- Beta(-w,w,0) frequency  3    0.085645:
                 1 
      1   0.000000D+00
      2  -0.879986D+01
      3   0.000000D+00
      4  -0.135929D+02
      5   0.000000D+00
      6   0.000000D+00
      7  -0.880952D+01
      8   0.000000D+00
      9   0.998512D+01
     10   0.000000D+00
     11  -0.136960D+02
     12   0.119537D+01
     13  -0.126636D+02
     14   0.000000D+00
     15  -0.127572D+02
     16   0.000000D+00
     17   0.106366D+01
     18  -0.506566D+02
 Property number 6 -- Beta(w,w,-2w) frequency  1    0.000000:
                 1 
      1   0.000000D+00
      2  -0.798293D+01
      3   0.000000D+00
      4  -0.105962D+02
      5   0.000000D+00
      6   0.000000D+00
      7  -0.798293D+01
      8   0.000000D+00
      9   0.898991D+01
     10   0.000000D+00
     11  -0.106660D+02
     12   0.794111D+00
     13  -0.105962D+02
     14   0.000000D+00
     15  -0.106660D+02
     16   0.000000D+00
     17   0.794111D+00
     18  -0.370879D+02
 Property number 6 -- Beta(w,w,-2w) frequency  2    0.067005:
                 1 
      1   0.000000D+00
      2  -0.963303D+01
      3   0.000000D+00
      4  -0.156376D+02
      5   0.000000D+00
      6   0.000000D+00
      7  -0.960553D+01
      8   0.000000D+00
      9   0.109988D+02
     10   0.000000D+00
     11  -0.157695D+02
     12   0.130174D+01
     13  -0.185482D+02
[...]
   xxz        0.118341D+02      0.102237D+00      0.379444D-01
   yxz        0.000000D+00      0.000000D+00      0.000000D+00
   yyz        0.118334D+02      0.102231D+00      0.379421D-01
   zxz        0.000000D+00      0.000000D+00      0.000000D+00
   zyz       -0.251224D-02     -0.217038D-04     -0.805515D-05
   zzz        0.446131D+02      0.385422D+00      0.143046D+00
 Beta(-w;w,0) w=  532.0nm:
                  (au)         (10**-30 esu)      (10**-50 SI)
   || (z)     0.463894D+02      0.400769D+00      0.148741D+00
   _|_(z)     0.148406D+02      0.128211D+00      0.475843D-01
   x          0.000000D+00      0.000000D+00      0.000000D+00
   y         -0.765840D-02     -0.661626D-04     -0.245556D-04
   z          0.231947D+03      0.200384D+01      0.743707D+00
   ||         0.463894D+02      0.400769D+00      0.148741D+00
   xxx        0.000000D+00      0.000000D+00      0.000000D+00
   yxx        0.909820D+01      0.786014D-01      0.291721D-01
   yyx        0.000000D+00      0.000000D+00      0.000000D+00
   zxx        0.136433D+02      0.117867D+00      0.437453D-01
   zyx        0.000000D+00      0.000000D+00      0.000000D+00
   zzx        0.000000D+00      0.000000D+00      0.000000D+00
   xxy        0.909822D+01      0.786016D-01      0.291722D-01
   yxy        0.000000D+00      0.000000D+00      0.000000D+00
   yyy       -0.909793D+01     -0.785990D-01     -0.291712D-01
   zxy        0.000000D+00      0.000000D+00      0.000000D+00
   zyy        0.136426D+02      0.117861D+00      0.437430D-01
   zzy       -0.290274D-02     -0.250774D-04     -0.930723D-05
   xxz        0.127095D+02      0.109800D+00      0.407512D-01
   yxz        0.000000D+00      0.000000D+00      0.000000D+00
   yyz        0.127087D+02      0.109793D+00      0.407488D-01
   zxz        0.000000D+00      0.000000D+00      0.000000D+00
   zyz       -0.280100D-02     -0.241984D-04     -0.898101D-05
   zzz        0.506524D+02      0.437598D+00      0.162410D+00
 Beta(-2w;w,w) w=  680.0nm:
                  (au)         (10**-30 esu)      (10**-50 SI)
   || (z)     0.614797D+02      0.531137D+00      0.197126D+00
   _|_(z)     0.224433D+02      0.193893D+00      0.719614D-01
   x          0.000000D+00      0.000000D+00      0.000000D+00
   y         -0.105101D-01     -0.907995D-04     -0.336993D-04
   z          0.307398D+03      0.265568D+01      0.985630D+00
   ||         0.614797D+02      0.531137D+00      0.197126D+00
   xxx        0.000000D+00      0.000000D+00      0.000000D+00
   yxx        0.996700D+01      0.861071D-01      0.319578D-01
   zxx        0.186268D+02      0.160921D+00      0.597243D-01
   xyx        0.996706D+01      0.861077D-01      0.319580D-01
   yyx        0.000000D+00      0.000000D+00      0.000000D+00
   zyx        0.000000D+00      0.000000D+00      0.000000D+00
   xyy        0.000000D+00      0.000000D+00      0.000000D+00
   yyy       -0.996682D+01     -0.861056D-01     -0.319572D-01
   zyy        0.186261D+02      0.160915D+00      0.597222D-01
   xzx        0.157017D+02      0.135651D+00      0.503454D-01
   yzx        0.000000D+00      0.000000D+00      0.000000D+00
   zzx        0.000000D+00      0.000000D+00      0.000000D+00
   xzy        0.000000D+00      0.000000D+00      0.000000D+00
   yzy        0.157009D+02      0.135644D+00      0.503428D-01
   zzy       -0.384028D-02     -0.331770D-04     -0.123133D-04
   xzz        0.000000D+00      0.000000D+00      0.000000D+00
   yzz       -0.349918D-02     -0.302302D-04     -0.112196D-04
   zzz        0.691134D+02      0.597086D+00      0.221602D+00
 Beta(-2w;w,w) w=  532.0nm:
                  (au)         (10**-30 esu)      (10**-50 SI)
   || (z)     0.102023D+03      0.881396D+00      0.327121D+00
   _|_(z)     0.409366D+02      0.353660D+00      0.131258D+00
   x          0.000000D+00      0.000000D+00      0.000000D+00
   y         -0.180542D-01     -0.155974D-03     -0.578882D-04
   z          0.510113D+03      0.440698D+01      0.163561D+01
   ||         0.102023D+03      0.881396D+00      0.327121D+00
   xxx        0.000000D+00      0.000000D+00      0.000000D+00
   yxx        0.114973D+02      0.993280D-01      0.368646D-01
   zxx        0.316961D+02      0.273829D+00      0.101629D+00
   xyx        0.114975D+02      0.993295D-01      0.368652D-01
   yyx        0.000000D+00      0.000000D+00      0.000000D+00
   zyx        0.000000D+00      0.000000D+00      0.000000D+00
   xyy        0.000000D+00      0.000000D+00      0.000000D+00
   yyy       -0.114974D+02     -0.993290D-01     -0.368650D-01
   zyy        0.316957D+02      0.273826D+00      0.101628D+00
   xzx        0.213027D+02      0.184039D+00      0.683042D-01
   yzx        0.000000D+00      0.000000D+00      0.000000D+00
   zzx        0.000000D+00      0.000000D+00      0.000000D+00
   xzy        0.000000D+00      0.000000D+00      0.000000D+00
   yzy        0.213018D+02      0.184031D+00      0.683013D-01
   zzy       -0.647195D-02     -0.559126D-04     -0.207514D-04
   xzz        0.000000D+00      0.000000D+00      0.000000D+00
   yzz       -0.511383D-02     -0.441795D-04     -0.163968D-04
   zzz        0.120504D+03      0.104106D+01      0.386380D+00

 Second dipole hyperpolarizability, Gamma (dipole orientation).
 ||, _|_  isotropic parallel and perpendicular components.
 Values do not include the 1/n! factor of 1/6.
 (esu units = statvolt**-2 cm**5 , SI units = C**4 m**4 J**-3)
 Gamma(0;0,0,0):
               (au)            (10**-36 esu)      (10**-61 SI)
   ||         0.505434D+04      0.254572D+01      0.315157D+01
   _|_        0.168478D+04      0.848572D+00      0.105052D+01
   xxxx       0.226506D+04      0.114084D+01      0.141235D+01
   xxyx       0.000000D+00      0.000000D+00      0.000000D+00
   xxyy       0.754993D+03      0.380267D+00      0.470767D+00
   yxyy       0.000000D+00      0.000000D+00      0.000000D+00
   yyyy       0.226502D+04      0.114082D+01      0.141233D+01
   xxzx      -0.171784D-04     -0.865226D-08     -0.107114D-07
   xxzy       0.104542D+03      0.526547D-01      0.651861D-01
   yxzy       0.169606D-04      0.854252D-08      0.105756D-07
   yyzy      -0.104649D+03     -0.527087D-01     -0.652529D-01
   xxzz       0.237571D+04      0.119657D+01      0.148134D+01
   yxzz       0.000000D+00      0.000000D+00      0.000000D+00
   yyzz       0.237570D+04      0.119657D+01      0.148134D+01
   zxzz       0.000000D+00      0.000000D+00      0.000000D+00
   zyzz      -0.200252D+00     -0.100861D-03     -0.124864D-03
   zzzz       0.972954D+04      0.490047D+01      0.606674D+01
 Gamma(-w;w,0,0) w=  680.0nm:
                  (au)         (10**-36 esu)      (10**-61 SI)
   ||         0.592920D+04      0.298636D+01      0.369708D+01
   _|_        0.197255D+04      0.993515D+00      0.122996D+01
   xxxx       0.249282D+04      0.125556D+01      0.155437D+01
   yxxx       0.000000D+00      0.000000D+00      0.000000D+00
   yyxx       0.820393D+03      0.413207D+00      0.511546D+00
   zxxx      -0.215644D-04     -0.108614D-07     -0.134462D-07
   zyxx       0.131242D+03      0.661027D-01      0.818345D-01
   zzxx       0.302025D+04      0.152121D+01      0.188324D+01
   xxyx       0.000000D+00      0.000000D+00      0.000000D+00
   yxyx       0.836159D+03      0.421148D+00      0.521377D+00
   yyyx       0.000000D+00      0.000000D+00      0.000000D+00
   zxyx       0.131239D+03      0.661013D-01      0.818328D-01
   zyyx       0.215689D-04      0.108636D-07      0.134490D-07
   zzyx       0.000000D+00      0.000000D+00      0.000000D+00
   xxyy       0.820399D+03      0.413210D+00      0.511550D+00
   yxyy       0.000000D+00      0.000000D+00      0.000000D+00
   yyyy       0.249275D+04      0.125552D+01      0.155432D+01
   zxyy       0.212946D-04      0.107254D-07      0.132780D-07
   zyyy      -0.131312D+03     -0.661379D-01     -0.818780D-01
   zzyy       0.302023D+04      0.152120D+01      0.188323D+01
   xxzx      -0.204287D-04     -0.102893D-07     -0.127381D-07
   yxzx       0.124327D+03      0.626197D-01      0.775226D-01
   yyzx       0.204364D-04      0.102932D-07      0.127429D-07
   zxzx       0.282543D+04      0.142308D+01      0.176176D+01
   zyzx       0.000000D+00      0.000000D+00      0.000000D+00
   zzzx       0.000000D+00      0.000000D+00      0.000000D+00
   xxzy       0.124324D+03      0.626180D-01      0.775204D-01
   yxzy       0.201808D-04      0.101645D-07      0.125835D-07
   yyzy      -0.124464D+03     -0.626889D-01     -0.776083D-01
   zxzy       0.000000D+00      0.000000D+00      0.000000D+00
   zyzy       0.282542D+04      0.142308D+01      0.176176D+01
   zzzy      -0.251740D+00     -0.126794D-03     -0.156969D-03
   xxzz       0.266845D+04      0.134402D+01      0.166388D+01
   yxzz       0.000000D+00      0.000000D+00      0.000000D+00
   yyzz       0.266845D+04      0.134401D+01      0.166388D+01
   zxzz       0.000000D+00      0.000000D+00      0.000000D+00
   zyzz      -0.247274D+00     -0.124545D-03     -0.154185D-03
   zzzz       0.116711D+05      0.587840D+01      0.727740D+01
 Gamma(-w;w,0,0) w=  532.0nm:
                  (au)         (10**-36 esu)      (10**-61 SI)
   ||         0.662341D+04      0.333601D+01      0.412995D+01
   _|_        0.219574D+04      0.110593D+01      0.136913D+01
   xxxx       0.265842D+04      0.133897D+01      0.165763D+01
   yxxx       0.000000D+00      0.000000D+00      0.000000D+00
   yyxx       0.866839D+03      0.436601D+00      0.540507D+00
   zxxx      -0.252208D-04     -0.127029D-07     -0.157261D-07
   zyxx       0.153499D+03      0.773127D-01      0.957124D-01
   zzxx       0.357656D+04      0.180141D+01      0.223012D+01
   xxyx       0.000000D+00      0.000000D+00      0.000000D+00
   yxyx       0.895729D+03      0.451151D+00      0.558521D+00
   yyyx       0.000000D+00      0.000000D+00      0.000000D+00
   zxyx       0.153491D+03      0.773088D-01      0.957075D-01
   zyyx       0.252232D-04      0.127042D-07      0.157276D-07
   zzyx       0.000000D+00      0.000000D+00      0.000000D+00
   xxyy       0.866849D+03      0.436606D+00      0.540514D+00
   yxyy       0.000000D+00      0.000000D+00      0.000000D+00
   yyyy       0.265833D+04      0.133892D+01      0.165757D+01
   zxyy       0.249425D-04      0.125628D-07      0.155526D-07
   zyyy      -0.153522D+03     -0.773246D-01     -0.957271D-01
   zzyy       0.357651D+04      0.180138D+01      0.223009D+01
   xxzx      -0.229142D-04     -0.115412D-07     -0.142879D-07
   yxzx       0.139453D+03      0.702382D-01      0.869542D-01
   yyzx       0.229235D-04      0.115459D-07      0.142937D-07
   zxzx       0.318161D+04      0.160248D+01      0.198385D+01
   zyzx       0.000000D+00      0.000000D+00      0.000000D+00
   zzzx       0.000000D+00      0.000000D+00      0.000000D+00
   xxzy       0.139450D+03      0.702370D-01      0.869527D-01
   yxzy       0.226741D-04      0.114202D-07      0.141382D-07
   yyzy      -0.139621D+03     -0.703228D-01     -0.870589D-01
   zxzy       0.000000D+00      0.000000D+00      0.000000D+00
   zyzy       0.318160D+04      0.160248D+01      0.198385D+01
   zzzy      -0.296388D+00     -0.149281D-03     -0.184809D-03
   xxzz       0.288390D+04      0.145253D+01      0.179822D+01
   yxzz       0.000000D+00      0.000000D+00      0.000000D+00
   yyzz       0.288389D+04      0.145253D+01      0.179822D+01
   zxzz       0.000000D+00      0.000000D+00      0.000000D+00
   zyzz      -0.283925D+00     -0.143005D-03     -0.177038D-03
   zzzz       0.132362D+05      0.666668D+01      0.825329D+01
 Gamma(-2w;w,w,0) w=  680.0nm:
                  (au)         (10**-36 esu)      (10**-61 SI)
   ||         0.871838D+04      0.439119D+01      0.543624D+01
   _|_        0.287505D+04      0.144808D+01      0.122996D+01
   xxxx       0.309174D+04      0.155722D+01      0.192782D+01
   yxxx       0.000000D+00      0.000000D+00      0.000000D+00
   zxxx      -0.396490D-04     -0.199700D-07     -0.247226D-07
   xyxx       0.000000D+00      0.000000D+00      0.000000D+00
   yyxx       0.100310D+04      0.505229D+00      0.625469D+00
   zyxx       0.241318D+03      0.121545D+00      0.150471D+00
   xyyx       0.108536D+04      0.546661D+00      0.676761D+00
   yyyx       0.000000D+00      0.000000D+00      0.000000D+00
   zyyx       0.396317D-04      0.199613D-07      0.247119D-07
   xzxx      -0.320874D-04     -0.161615D-07     -0.200077D-07
   yzxx       0.195293D+03      0.983632D-01      0.121773D+00
   zzxx       0.503418D+04      0.253556D+01      0.313900D+01
   xzyx       0.195275D+03      0.983542D-01      0.121762D+00
   yzyx       0.320946D-04      0.161651D-07      0.200122D-07
   zzyx       0.000000D+00      0.000000D+00      0.000000D+00
   xzzx       0.389307D+04      0.196082D+01      0.242748D+01
   yzzx       0.000000D+00      0.000000D+00      0.000000D+00
   zzzx       0.000000D+00      0.000000D+00      0.000000D+00
   xxxy       0.000000D+00      0.000000D+00      0.000000D+00
   yxxy       0.108535D+04      0.546660D+00      0.676760D+00
   zxxy       0.241255D+03      0.121513D+00      0.150432D+00
   xyxy       0.100311D+04      0.505237D+00      0.625479D+00
   yyxy       0.000000D+00      0.000000D+00      0.000000D+00
   zyxy       0.391303D-04      0.197088D-07      0.243993D-07
   xyyy       0.000000D+00      0.000000D+00      0.000000D+00
   yyyy       0.309155D+04      0.155712D+01      0.192770D+01
   zyyy      -0.240939D+03     -0.121354D+00     -0.150235D+00
   xzxy       0.195268D+03      0.983506D-01      0.121757D+00
   yzxy       0.317156D-04      0.159742D-07      0.197759D-07
   zzxy       0.000000D+00      0.000000D+00      0.000000D+00
   xzyy       0.318049D-04      0.160191D-07      0.198315D-07
   yzyy      -0.195399D+03     -0.984166D-01     -0.121839D+00
   zzyy       0.503406D+04      0.253550D+01      0.313893D+01
   xzzy       0.000000D+00      0.000000D+00      0.000000D+00
   yzzy       0.389304D+04      0.196081D+01      0.242746D+01
   zzzy      -0.390868D+00     -0.196868D-03     -0.243721D-03
   xxxz      -0.297552D-04     -0.149868D-07     -0.185535D-07
   yxxz       0.181643D+03      0.914881D-01      0.113261D+00
   zxxz       0.459643D+04      0.231508D+01      0.286605D+01
   xyxz       0.181661D+03      0.914973D-01      0.113273D+00
   yyxz       0.299013D-04      0.150604D-07      0.186446D-07
   zyxz       0.000000D+00      0.000000D+00      0.000000D+00
   xyyz       0.298506D-04      0.150348D-07      0.186130D-07
   yyyz      -0.181923D+03     -0.916292D-01     -0.113436D+00
   zyyz       0.459650D+04      0.231512D+01      0.286609D+01
   xzxz       0.367749D+04      0.185224D+01      0.229306D+01
   yzxz       0.000000D+00      0.000000D+00      0.000000D+00
   zzxz       0.000000D+00      0.000000D+00      0.000000D+00
   xzyz       0.000000D+00      0.000000D+00      0.000000D+00
   yzyz       0.367751D+04      0.185225D+01      0.229307D+01
   zzyz      -0.446631D+00     -0.224954D-03     -0.278491D-03
   xzzz       0.000000D+00      0.000000D+00      0.000000D+00
   yzzz      -0.400105D+00     -0.201521D-03     -0.249481D-03
   zzzz       0.180724D+05      0.910252D+01      0.112688D+02
 Gamma(-2w;w,w,0) w=  532.0nm:
                  (au)         (10**-36 esu)      (10**-61 SI)
   ||         0.145057D+05      0.730608D+01      0.904486D+01
   _|_        0.465365D+04      0.234390D+01      0.136913D+01
   xxxx       0.396647D+04      0.199779D+01      0.247324D+01
   yxxx       0.000000D+00      0.000000D+00      0.000000D+00
   zxxx      -0.849337D-04     -0.427785D-07     -0.529594D-07
   xyxx       0.000000D+00      0.000000D+00      0.000000D+00
   yyxx       0.124068D+04      0.624894D+00      0.773613D+00
   zyxx       0.516990D+03      0.260392D+00      0.322363D+00
   xyyx       0.148473D+04      0.747811D+00      0.925783D+00
   yyyx       0.000000D+00      0.000000D+00      0.000000D+00
   zyyx       0.848245D-04      0.427235D-07      0.528913D-07
   xzxx      -0.528042D-04     -0.265959D-07     -0.329254D-07
   yzxx       0.321422D+03      0.161891D+00      0.200419D+00
   zzxx       0.101325D+05      0.510345D+01      0.631802D+01
   xzyx       0.321334D+03      0.161846D+00      0.200364D+00
   yzyx       0.528088D-04      0.265982D-07      0.329283D-07
   zzyx       0.000000D+00      0.000000D+00      0.000000D+00
   xzzx       0.580450D+04      0.292355D+01      0.361933D+01
   yzzx       0.000000D+00      0.000000D+00      0.000000D+00
   zzzx       0.000000D+00      0.000000D+00      0.000000D+00
   xxxy       0.000000D+00      0.000000D+00      0.000000D+00
   yxxy       0.148472D+04      0.747808D+00      0.925779D+00
   zxxy       0.516698D+03      0.260245D+00      0.322181D+00
   xyxy       0.124072D+04      0.624915D+00      0.773639D+00
   yyxy       0.000000D+00      0.000000D+00      0.000000D+00
   zyxy       0.837769D-04      0.421959D-07      0.522381D-07
   xyyy       0.000000D+00      0.000000D+00      0.000000D+00
   yyyy       0.396601D+04      0.199756D+01      0.247296D+01
   zyyy      -0.514704D+03     -0.259241D+00     -0.320938D+00
   xzxy       0.321317D+03      0.161837D+00      0.200353D+00
   yzxy       0.523005D-04      0.263422D-07      0.326114D-07
   zzxy       0.000000D+00      0.000000D+00      0.000000D+00
   xzyy       0.527075D-04      0.265472D-07      0.328652D-07
   yzyy      -0.321401D+03     -0.161880D+00     -0.200406D+00
   zzyy       0.101316D+05      0.510300D+01      0.631747D+01
   xzzy       0.000000D+00      0.000000D+00      0.000000D+00
   yzzy       0.580437D+04      0.292348D+01      0.361924D+01
   zzzy      -0.311289D+00     -0.156787D-03     -0.194101D-03
   xxxz      -0.455037D-04     -0.229188D-07     -0.283733D-07
   yxxz       0.275574D+03      0.138798D+00      0.171831D+00
   zxxz       0.844375D+04      0.425286D+01      0.526500D+01
   xyxz       0.275636D+03      0.138829D+00      0.171869D+00
   yyxz       0.453009D-04      0.228167D-07      0.282468D-07
   zyxz       0.000000D+00      0.000000D+00      0.000000D+00
   xyyz       0.453485D-04      0.228407D-07      0.282765D-07
   yyyz      -0.276152D+03     -0.139090D+00     -0.172191D+00
   zyyz       0.844412D+04      0.425305D+01      0.526523D+01
   xzxz       0.517741D+04      0.260770D+01      0.322831D+01
   yzxz       0.000000D+00      0.000000D+00      0.000000D+00
   zzxz       0.000000D+00      0.000000D+00      0.000000D+00
   xzyz       0.000000D+00      0.000000D+00      0.000000D+00
   yzyz       0.517749D+04      0.260774D+01      0.322836D+01
   zzyz      -0.108172D+01     -0.544830D-03     -0.674494D-03
   xzzz       0.000000D+00      0.000000D+00      0.000000D+00
   yzzz      -0.745467D+00     -0.375469D-03     -0.464827D-03
   zzzz       0.320403D+05      0.161377D+02      0.199784D+02

 ----------------------------------------------------------------------
 1\1\GINC-LOCALHOST\SP\RPBE1PBE\DAug-CC-pVTZ\H3N1\ROOT\12-Sep-2019\0\\#
 p PBE1PBE/daug-cc-pVTZ polar=gamma\\pbe1pbe/aug-cc-pVTZ opted\\0,1\N,0
 ,0.,0.,0.113676\H,0,0.,0.939028,-0.265244\H,0,-0.813222,-0.469514,-0.2
 65244\H,0,0.813222,-0.469514,-0.265244\\Version=ES64L-G16RevA.03\State
 =1-A1\HF=-56.5157778\RMSD=1.668e-09\Dipole=0.,0.,-0.5973108\Polar=13.7
 779469,0.,13.777938,0.,-0.0000111,15.6387494\HyperPolar=-0.0000014,-8.
 2344299,0.0000014,8.2341251,-10.6305983,0.,-10.629916,0.,0.0021375,-37
 .0857052\DQPolar=-0.0000006,0.0000006,0.,-3.6383191,-2.1032198,0.,-3.6
 383196,3.638323,-0.0000034,0.0000006,0.,-2.1032196,-0.6446536,-0.64465
 28,1.2893064,0.,0.,0.0000033\Quadrupole=0.767454,0.767454,-1.534908,0.
 ,0.,0.\PG=C03V [C3(N1),3SGV(H1)]\\@


 WHEN HAVING A MEETING OF THE MINDS,
 MAKE SURE YOU HAVE THE EQUIPMENT FOR IT.
 Job cpu time:       0 days  5 hours 56 minutes 28.1 seconds.
 Elapsed time:       0 days  0 hours 10 minutes 18.8 seconds.
 File lengths (MBytes):  RWF=     80 Int=      0 D2E=      0 Chk=     41 Scr=      1
 Normal termination of Gaussian 16 at Thu Sep 12 14:27:49 2019.
