Title Card Required                                                     
SP        UB3LYP                                                      6-31G(d)            
Number of atoms                            I                4
Info1-9                                    I   N=           9
          14          13           0           0           0         110
           1          18        -502
Full Title                                 C   N=           2
Title Card Required     
Route                                      C   N=           2
# b3lyp/6-31g(d) nosymm 
Charge                                     I                0
Multiplicity                               I                2
Number of electrons                        I                9
Number of alpha electrons                  I                5
Number of beta electrons                   I                4
Number of basis functions                  I               21
Number of independent functions            I               21
Number of point charges in /Mol/           I                0
Number of translation vectors              I                0
Atomic numbers                             I   N=           4
           6           1           1           1
Nuclear charges                            R   N=           4
  6.00000000E+00  1.00000000E+00  1.00000000E+00  1.00000000E+00
Current cartesian coordinates              R   N=          12
  0.00000000E+00  0.00000000E+00  1.44623386E+00  0.00000000E+00  1.92942927E+00
  2.20055773E+00  1.67093552E+00 -9.64714635E-01  2.20055773E+00 -1.67093552E+00
 -9.64714635E-01  2.20055773E+00
Number of symbols in /Mol/                 I                0
Force Field                                I                0
Atom Types                                 C   N=           4
                                                
Int Atom Types                             I   N=           4
           0           0           0           0
MM charges                                 R   N=           4
  0.00000000E+00  0.00000000E+00  0.00000000E+00  0.00000000E+00
Integer atomic weights                     I   N=           4
          12           1           1           1
Real atomic weights                        R   N=           4
  1.20000000E+01  1.00782504E+00  1.00782504E+00  1.00782504E+00
Atom fragment info                         I   N=           4
           0           0           0           0
Atom residue num                           I   N=           4
           0           0           0           0
Nuclear spins                              I   N=           4
           0           1           1           1
Nuclear ZEff                               R   N=           4
 -3.60000000E+00 -1.00000000E+00 -1.00000000E+00 -1.00000000E+00
Nuclear ZNuc                               R   N=           4
  6.00000000E+00  1.00000000E+00  1.00000000E+00  1.00000000E+00
Nuclear QMom                               R   N=           4
  0.00000000E+00  0.00000000E+00  0.00000000E+00  0.00000000E+00
Nuclear GFac                               R   N=           4
  0.00000000E+00  2.79284600E+00  2.79284600E+00  2.79284600E+00
MicOpt                                     I   N=           4
          -1          -1          -1          -1
Number of residues                         I                0
Number of secondary structures             I                0
Number of contracted shells                I               10
Number of primitive shells                 I               23
Pure/Cartesian d shells                    I                1
Pure/Cartesian f shells                    I                0
Highest angular momentum                   I                2
Largest degree of contraction              I                6
Shell types                                I   N=          10
           0          -1          -1           2           0           0
           0           0           0           0
Number of primitives per shell             I   N=          10
           6           3           1           1           3           1
           3           1           3           1
Shell to atom map                          I   N=          10
           1           1           1           1           2           2
           3           3           4           4
Primitive exponents                        R   N=          23
  3.04752488E+03  4.57369518E+02  1.03948685E+02  2.92101553E+01  9.28666296E+00
  3.16392696E+00  7.86827235E+00  1.88128854E+00  5.44249258E-01  1.68714478E-01
  8.00000000E-01  1.87311370E+01  2.82539436E+00  6.40121692E-01  1.61277759E-01
  1.87311370E+01  2.82539436E+00  6.40121692E-01  1.61277759E-01  1.87311370E+01
  2.82539436E+00  6.40121692E-01  1.61277759E-01
Contraction coefficients                   R   N=          23
  1.83473713E-03  1.40373228E-02  6.88426223E-02  2.32184443E-01  4.67941348E-01
  3.62311985E-01 -1.19332420E-01 -1.60854152E-01  1.14345644E+00  1.00000000E+00
  1.00000000E+00  3.34946043E-02  2.34726953E-01  8.13757326E-01  1.00000000E+00
  3.34946043E-02  2.34726953E-01  8.13757326E-01  1.00000000E+00  3.34946043E-02
  2.34726953E-01  8.13757326E-01  1.00000000E+00
P(S=P) Contraction coefficients            R   N=          23
  0.00000000E+00  0.00000000E+00  0.00000000E+00  0.00000000E+00  0.00000000E+00
  0.00000000E+00  6.89990666E-02  3.16423961E-01  7.44308291E-01  1.00000000E+00
  0.00000000E+00  0.00000000E+00  0.00000000E+00  0.00000000E+00  0.00000000E+00
  0.00000000E+00  0.00000000E+00  0.00000000E+00  0.00000000E+00  0.00000000E+00
  0.00000000E+00  0.00000000E+00  0.00000000E+00
Coordinates of each shell                  R   N=          30
  0.00000000E+00  0.00000000E+00  1.44623386E+00  0.00000000E+00  0.00000000E+00
  1.44623386E+00  0.00000000E+00  0.00000000E+00  1.44623386E+00  0.00000000E+00
  0.00000000E+00  1.44623386E+00  0.00000000E+00  1.92942927E+00  2.20055773E+00
  0.00000000E+00  1.92942927E+00  2.20055773E+00  1.67093552E+00 -9.64714635E-01
  2.20055773E+00  1.67093552E+00 -9.64714635E-01  2.20055773E+00 -1.67093552E+00
 -9.64714635E-01  2.20055773E+00 -1.67093552E+00 -9.64714635E-01  2.20055773E+00
Num ILSW                                   I              100
ILSW                                       I   N=         100
           1           1           0           0           2           0
           0           0           0           0         402          -1
           5           0           0           0           0           0
           0           0           1           0           0           0
           1           1           0           0           0           0
           0           0      100000           0          -1           0
           0           0           0           0           0           0
           0           0           0           1           0           0
           0 -2000000000           1           0           0           0
           0           0           4          52           0           0
           0           0           5           0           0           0
           0           0           0           0           0           1
           0           0           0           0           0           0
           0           0           0           0           0           0
           0           0           0           0           0           0
           0           0           0           0           0           0
           0           0           0           0
Num RLSW                                   I               52
RLSW                                       R   N=          52
  8.00000000E-01  7.20000000E-01  1.00000000E+00  8.10000000E-01  2.00000000E-01
  0.00000000E+00  0.00000000E+00  1.00000000E+00  0.00000000E+00  0.00000000E+00
  0.00000000E+00  0.00000000E+00  1.00000000E+00  0.00000000E+00  0.00000000E+00
  0.00000000E+00  0.00000000E+00  1.00000000E+00  0.00000000E+00  0.00000000E+00
  0.00000000E+00  0.00000000E+00  1.00000000E+00  0.00000000E+00  0.00000000E+00
  0.00000000E+00  0.00000000E+00  1.00000000E+00  0.00000000E+00  0.00000000E+00
  0.00000000E+00  0.00000000E+00  1.00000000E+00  0.00000000E+00  0.00000000E+00
  0.00000000E+00  0.00000000E+00  0.00000000E+00  1.00000000E+00  1.00000000E+00
  0.00000000E+00  1.00000000E+00  0.00000000E+00  0.00000000E+00  0.00000000E+00
  0.00000000E+00  0.00000000E+00  0.00000000E+00  0.00000000E+00  0.00000000E+00
  0.00000000E+00  0.00000000E+00
MxBond                                     I                3
NBond                                      I   N=           4
           3           1           1           1
IBond                                      I   N=          12
           2           3           4           1           0           0
           1           0           0           1           0           0
RBond                                      R   N=          12
  1.00000000E+00  1.00000000E+00  1.00000000E+00  1.00000000E+00  0.00000000E+00
  0.00000000E+00  1.00000000E+00  0.00000000E+00  0.00000000E+00  1.00000000E+00
  0.00000000E+00  0.00000000E+00
Virial Ratio                               R      2.010178030172752E+00
SCF Energy                                 R     -3.982470902446094E+01
Total Energy                               R     -3.982470902446094E+01
S**2                                       R      7.523921476509603E-01
S**2 after annihilation                    R      7.500041886599685E-01
RMS Density                                R      1.436756722003517E-09
Job Status                                 I                1
Nuclear derivative order                   I                0
External E-field                           R   N=          35
  0.00000000E+00  0.00000000E+00  0.00000000E+00  0.00000000E+00  0.00000000E+00
  0.00000000E+00  0.00000000E+00  0.00000000E+00  0.00000000E+00  0.00000000E+00
  0.00000000E+00  0.00000000E+00  0.00000000E+00  0.00000000E+00  0.00000000E+00
  0.00000000E+00  0.00000000E+00  0.00000000E+00  0.00000000E+00  0.00000000E+00
  0.00000000E+00  0.00000000E+00  0.00000000E+00  0.00000000E+00  0.00000000E+00
  0.00000000E+00  0.00000000E+00  0.00000000E+00  0.00000000E+00  0.00000000E+00
  0.00000000E+00  0.00000000E+00  0.00000000E+00  0.00000000E+00  0.00000000E+00
IOpCl                                      I                1
IROHF                                      I                0
Alpha Orbital Energies                     R   N=          21
 -1.02035175E+01 -6.89267486E-01 -4.00505631E-01 -4.00505620E-01 -2.63904905E-01
  1.19128837E-01  1.68552058E-01  1.68552089E-01  5.31202585E-01  5.31202715E-01
  5.31666277E-01  8.53155461E-01  8.77328429E-01  8.77328504E-01  9.67307768E-01
  1.64168087E+00  1.64168092E+00  1.83181014E+00  2.22661041E+00  2.22661073E+00
  4.06686165E+00
Beta Orbital Energies                      R   N=          21
 -1.01884400E+01 -6.54838113E-01 -3.88709158E-01 -3.88709150E-01 -7.76751771E-02
  1.27340032E-01  1.81737478E-01  1.81737478E-01  5.40569341E-01  5.40569514E-01
  6.10595384E-01  8.72297430E-01  8.91062765E-01  8.91062779E-01  9.88356030E-01
  1.69092028E+00  1.69092033E+00  1.92312194E+00  2.25901487E+00  2.25901523E+00
  4.10575735E+00
Alpha MO coefficients                      R   N=         441
  9.92584218E-01  5.01931718E-02 -7.17437665E-16  9.05054048E-10  2.75353728E-04
 -1.19023087E-02 -1.44974357E-16 -1.91458320E-09 -1.59887289E-03 -1.00005750E-02
 -1.00005759E-02 -9.54506166E-03 -7.02183276E-16  6.02790662E-16 -1.58712222E-09
 -1.95540152E-04  2.52462427E-03 -1.95540878E-04  2.52462210E-03 -1.95540878E-04
  2.52462210E-03 -2.01175232E-01  3.96459520E-01  9.08905455E-16  1.50106136E-07
  7.21845768E-02  3.97545337E-01  3.75918159E-15  2.43958267E-08  3.03814867E-02
 -1.41493500E-04 -1.41489224E-04 -1.75653316E-03  2.03319905E-17 -3.36160317E-17
  2.27576433E-08  1.46888614E-01  3.81846767E-02  1.46888484E-01  3.81846410E-02
  1.46888484E-01  3.81846410E-02  2.01126974E-15 -3.84439806E-15  4.60887910E-01
  2.01538929E-08  1.61720588E-15 -4.11368039E-15  2.00017570E-01  8.74644326E-09
  2.50743919E-15 -7.55825363E-10  7.55824537E-10 -9.94858770E-16 -1.99584244E-02
  1.93271334E-02  8.45144708E-10  1.21015234E-08  1.04342968E-08  2.39666367E-01
  2.06647490E-01 -2.39666379E-01 -2.06647501E-01  4.96507482E-08 -5.55355959E-08
 -2.01538908E-08  4.60887959E-01  7.99772932E-08 -2.29574822E-07 -8.74644990E-09
  2.00017552E-01  3.64145153E-08 -1.72845391E-02  1.72845159E-02 -2.43147291E-08
  8.72750000E-10 -8.45144625E-10  1.93271332E-02  2.76742883E-01  2.38615977E-01
 -1.38371476E-01 -1.19308038E-01 -1.38371455E-01 -1.19308020E-01  6.65688562E-02
 -1.49283767E-01  6.14769997E-16 -8.20387437E-08  5.67250189E-01 -2.93869933E-01
 -1.29326043E-15 -3.88582130E-08  4.49216680E-01  6.76626058E-03  6.76624877E-03
  3.81269371E-03 -2.01211278E-16  2.30728096E-16 -2.82653047E-09  6.68588100E-02
  6.29957390E-02  6.68588608E-02  6.29958270E-02  6.68588608E-02  6.29958270E-02
 -1.44211807E-01  2.01440042E-01  2.06133393E-14 -3.17385340E-07  1.70535532E-01
  2.26233371E+00  9.82851748E-14 -6.09432539E-07  6.46427745E-01 -1.40742141E-02
 -1.40741745E-02 -2.54566282E-03  9.29062977E-16 -3.85721265E-16  2.23581534E-08
 -3.53048714E-02 -1.16325114E+00 -3.53051132E-02 -1.16325225E+00 -3.53051132E-02
 -1.16325225E+00 -5.35866417E-15 -4.56587312E-15 -4.13868220E-01 -1.32191226E-08
  1.08267675E-14  7.20366130E-14 -1.27800593E+00 -4.08200674E-08  1.65462637E-14
 -4.68311347E-10  4.68316318E-10  4.48946992E-15 -1.69303194E-02  9.35602302E-03
  2.98835652E-10  3.92743595E-09  5.47622674E-08  1.06487664E-01  1.48481196E+00
 -1.06487668E-01 -1.48481201E+00  1.01235393E-07 -1.37115984E-07  1.32191285E-08
 -4.13868132E-01 -8.96255548E-08 -2.53691231E-06  4.08200552E-08 -1.27800597E+00
 -7.00568758E-07 -1.46620668E-02  1.46620931E-02  3.93230635E-08  5.40762033E-10
 -2.98835570E-10  9.35602957E-03  1.22961334E-01  1.71451483E+00 -6.14807541E-02
 -8.57255637E-01 -6.14807473E-02 -8.57255543E-01  3.72633691E-07 -3.47000265E-06
 -5.16006685E-09 -7.53408625E-01  1.47098027E-05  3.46729001E-07  1.00204785E-08
  1.46306742E+00 -1.65952023E-05  7.28539788E-02 -7.28540282E-02 -3.85382382E-07
  5.76163800E-10 -4.07429716E-10 -5.94879436E-02 -4.61538887E-01 -2.29431332E-01
  2.30770622E-01  1.14717586E-01  2.30770627E-01  1.14717589E-01 -2.02433462E-14
  1.38400820E-13 -7.53408818E-01  5.16005764E-09 -7.94511171E-13  9.55612168E-14
  1.46306804E+00 -1.00204814E-08  9.17102950E-13 -4.98970930E-10  4.98976123E-10
  2.21431274E-14  8.41245705E-02 -5.94879794E-02  4.07430189E-10  3.16102343E-09
  1.57127412E-09 -3.99705058E-01 -1.98695000E-01  3.99705055E-01  1.98694998E-01
 -2.77236287E-02  2.32133695E-01  5.02915071E-13 -1.06877737E-05 -1.02438775E+00
  4.61411648E-02 -9.82181527E-13  2.09394945E-05  1.17870301E+00  4.49397404E-03
  4.49188264E-03  3.00539420E-02 -5.64242929E-14  4.05046243E-14 -8.48136146E-07
 -5.52512233E-02 -1.17514320E-01 -5.52411822E-02 -1.17509461E-01 -5.52411822E-02
 -1.17509461E-01 -9.78293748E-02 -6.01894070E-01  2.34301767E-14 -3.28468246E-06
  1.47410726E-01  1.88167550E+00 -2.02114206E-14  5.74141545E-06  4.63380126E-01
 -1.67713972E-01 -1.67712721E-01  1.47170839E-01  3.02980780E-15 -3.36222807E-15
  4.04167208E-07 -6.99414090E-01 -1.26899776E-01 -6.99419313E-01 -1.26888513E-01
 -6.99419313E-01 -1.26888513E-01  1.97128555E-14  3.14560167E-13  8.35221442E-01
 -3.74672474E-08 -3.99073904E-15 -8.07185994E-13 -1.22890072E+00  5.51273231E-08
 -1.69549328E-13 -6.21920962E-09  6.21931136E-09 -1.28221872E-14  1.60087748E-01
 -1.26480633E-01  5.67379793E-09  3.75414678E-08 -7.31355416E-08 -7.24754079E-01
  1.41191959E+00  7.24754041E-01 -1.41191952E+00 -4.13831435E-07 -4.51737106E-06
  3.74672342E-08  8.35221636E-01  4.48198239E-07  1.22884712E-05 -5.51273112E-08
 -1.22890093E+00  2.70663695E-06  1.38639245E-01 -1.38640893E-01  5.06942045E-07
  7.18138546E-09 -5.67379999E-09 -1.26480627E-01 -8.36876458E-01  1.63034267E+00
  4.18434246E-01 -8.15174139E-01  4.18434311E-01 -8.15174266E-01 -9.11165682E-04
 -1.89398358E+00  8.52921407E-14 -1.01626655E-06 -3.19192918E-01  4.21008744E+00
 -1.07102103E-13  1.81689486E-06  8.50261595E-01 -9.92425216E-02 -9.92421412E-02
 -9.42299848E-02  1.11678586E-14 -9.65165453E-15  1.37577979E-07  2.73078191E-01
 -1.27924304E+00  2.73076656E-01 -1.27923960E+00  2.73076656E-01 -1.27923960E+00
  2.56998046E-17 -2.17840869E-15  2.46914759E-03 -3.84531786E-12  6.10454449E-16
  4.72045442E-15 -1.16019376E-02  1.80642131E-11  7.87495755E-16 -8.25895126E-10
  8.25894012E-10  6.41365174E-16  6.12704634E-01  7.90287846E-01 -1.23006146E-09
  2.57091227E-12 -1.20046383E-11 -1.43046577E-03  6.67578412E-03  1.43046577E-03
 -6.67578411E-03  6.93343913E-09 -5.31731067E-08  3.84470609E-12  2.46918682E-03
  3.49294938E-09  5.03602968E-08 -1.80618175E-11 -1.16019405E-02 -1.20293407E-08
  5.30617268E-01 -5.30617959E-01  6.86012224E-07  9.53660844E-10  1.23006170E-09
  7.90287993E-01 -1.65179126E-03  7.70854727E-03  8.25915732E-04 -3.85429694E-03
  8.25915737E-04 -3.85429696E-03 -5.18948446E-02 -3.30618806E-01  4.86057244E-15
  5.77317506E-08  1.69280098E-02  1.20915143E+00 -4.18675043E-15  1.84882057E-07
  3.50441221E-01  4.92207762E-01  4.92206700E-01 -1.03196917E+00  8.09798705E-15
 -4.85530043E-15  4.13221676E-07 -3.51271467E-01 -2.21555893E-01 -3.51271600E-01
 -2.21555503E-01 -3.51271600E-01 -2.21555503E-01  1.26569840E-15  2.68896522E-14
 -1.44971239E-01  3.84608935E-10  2.97681599E-15 -6.77196755E-14 -4.13413922E-01
  1.09679434E-09 -1.61235506E-14 -2.04924910E-09  2.04924090E-09  8.82161159E-15
  8.91916940E-01 -6.93081939E-01  1.83874955E-09 -2.05992697E-09  2.73339166E-10
  6.72426639E-01 -8.92218992E-02 -6.72426637E-01  8.92218989E-02  4.95509353E-08
 -6.04834656E-08 -3.84609715E-10 -1.44971524E-01 -1.17846379E-07 -8.91685880E-07
 -1.09678966E-09 -4.13413608E-01 -2.57791417E-07  7.72422919E-01 -7.72423062E-01
  3.23236318E-07  2.36626328E-09 -1.83874898E-09 -6.93081830E-01  7.76452000E-01
 -1.03024688E-01 -3.88225607E-01  5.15126519E-02 -3.88225610E-01  5.15126524E-02
 -4.72979312E-01  3.01779286E+00 -3.05974619E-15 -1.25438567E-07 -7.19212819E-02
  1.98048688E+00 -4.46723365E-15  2.17571309E-07  2.75907208E-01 -1.84542324E+00
 -1.84542338E+00 -1.84570490E+00  1.43152660E-15 -1.08172056E-15 -5.90783402E-08
  1.44656935E-01 -4.91111272E-01  1.44656712E-01 -4.91110874E-01  1.44656712E-01
 -4.91110874E-01
Beta MO coefficients                       R   N=         441
  9.93042010E-01  4.72708898E-02 -1.13703722E-15 -6.77880948E-11  8.88416756E-04
 -1.19344797E-02 -1.01835502E-15 -5.06350388E-10 -1.72836541E-03 -8.70257317E-03
 -8.70257062E-03 -9.44742781E-03 -2.99410691E-17  2.72661361E-17 -4.94968759E-10
 -3.01913507E-04  2.56269579E-03 -3.01913096E-04  2.56269455E-03 -3.01913096E-04
  2.56269455E-03 -1.91967423E-01  3.72328256E-01 -1.31915142E-15  1.49952062E-07
  1.12940784E-01  3.47681081E-01  8.68577051E-17  2.74009786E-08  3.76162672E-02
  9.18274916E-03  9.18275911E-03 -2.01992529E-02  8.30352034E-17  3.87420860E-16
  9.82664182E-09  1.58546974E-01  5.77881537E-02  1.58546840E-01  5.77881155E-02
  1.58546840E-01  5.77881155E-02  4.00265746E-08 -4.05488459E-08  2.27637688E-08
  4.42670926E-01 -3.13502438E-08 -1.99445535E-07  9.41418588E-09  1.83070939E-01
 -3.50821081E-08 -1.73716288E-02  1.73716052E-02  1.35029357E-08 -1.03150765E-09
  1.39592472E-09  2.71455500E-02  2.85575147E-01  2.63899123E-01 -1.42787611E-01
 -1.31949605E-01 -1.42787636E-01 -1.31949628E-01 -2.03355871E-15  7.04437858E-16
  4.42670801E-01 -2.27637743E-08  1.19046740E-15  1.14551901E-14  1.83070970E-01
 -9.41418810E-09  1.96757653E-15  8.93313443E-10 -8.93311559E-10 -5.03877541E-16
 -2.00589933E-02  2.71455562E-02 -1.39592451E-09 -1.46853293E-08 -1.35706645E-08
  2.47315380E-01  2.28543378E-01 -2.47315365E-01 -2.28543364E-01  7.81965313E-02
 -1.40616196E-01 -5.14349690E-16 -4.06780824E-08  4.63000352E-01 -3.75256600E-01
 -3.90893604E-15 -2.76015076E-08  5.36662663E-01 -5.90981819E-03 -5.90983401E-03
  3.32599085E-02  2.78574115E-16  1.35998321E-17  5.00730219E-08  5.78718126E-02
  7.10859016E-02  5.78717829E-02  7.10858647E-02  5.78717829E-02  7.10858647E-02
 -1.46334806E-01  1.88785181E-01  2.29527997E-14 -2.84097974E-07  1.74314423E-01
  2.30400334E+00  1.11287605E-13 -4.48732751E-07  6.59986465E-01 -8.25580567E-03
 -8.25576795E-03 -1.50998106E-02  1.37680089E-16  7.37564655E-16  4.85378698E-09
 -2.50945877E-02 -1.17605145E+00 -2.50947958E-02 -1.17605225E+00 -2.50947958E-02
 -1.17605225E+00  7.70270725E-08 -7.53226666E-08 -2.86649168E-05 -4.16018990E-01
 -4.41509022E-08 -2.27348018E-06 -8.93114095E-05 -1.29619222E+00 -6.96528398E-07
 -1.29442122E-02  1.29442359E-02  3.72775707E-09 -1.02987154E-06 -4.70803334E-07
 -6.83283776E-03  1.04416848E-01  1.73303025E+00 -5.22022949E-02 -8.66410082E-01
 -5.22147563E-02 -8.66616908E-01 -5.31661140E-12  5.19203782E-12 -4.16019022E-01
  2.86649146E-05  3.05552176E-12  1.56809917E-10 -1.29619233E+00  8.93114018E-05
  4.80349612E-11  8.91893752E-07 -8.91895382E-07 -2.54169156E-13 -1.49467084E-02
 -6.83285230E-03  4.70802332E-07 -7.19462354E-06 -1.19410809E-04  9.04312597E-02
  1.50090668E+00 -9.04240651E-02 -1.50078727E+00 -2.35700553E-08 -7.34428582E-08
 -5.74800250E-09 -7.40609685E-01  4.39568357E-08  9.01557269E-07  1.13051126E-08
  1.45662492E+00  2.50514895E-07  7.41684845E-02 -7.41684019E-02 -8.33590842E-09
  6.64684042E-10 -4.50039677E-10 -5.79860848E-02 -4.74051173E-01 -2.20059312E-01
  2.37025619E-01  1.10029075E-01  2.37025626E-01  1.10029078E-01  7.46553832E-16
 -3.95788130E-14 -7.40609783E-01  5.74799609E-09 -1.69393996E-14  6.17310736E-14
  1.45662525E+00 -1.13051148E-08  2.15045025E-14 -5.75635389E-10  5.75632591E-10
 -2.21601072E-16  8.56423928E-02 -5.79861455E-02  4.50039730E-10  3.67919287E-09
  1.70790484E-09 -4.10540462E-01 -1.90576842E-01  4.10540459E-01  1.90576840E-01
 -3.82638321E-02  1.70877109E-01  3.96345328E-15  1.45202047E-07 -1.07436857E+00
  2.53010015E-01 -1.12340750E-14 -1.29702298E-07  1.17199665E+00  1.59764383E-02
  1.59764557E-02  1.11764504E-02 -1.80007531E-15  1.02469867E-15 -1.00674558E-07
 -7.45816631E-02 -1.63013857E-01 -7.45814717E-02 -1.63014157E-01 -7.45814717E-02
 -1.63014157E-01 -1.03333720E-01 -5.18046810E-01 -3.45822476E-14 -4.93972553E-06
  1.84463737E-01  1.75656828E+00  5.54102320E-14  7.93428543E-06  4.18165833E-01
 -1.54702841E-01 -1.54701092E-01  1.21524038E-01 -7.97826633E-15  3.97626110E-15
  4.82834656E-07 -7.15732591E-01 -8.62879616E-02 -7.15740022E-01 -8.62725444E-02
 -7.15740022E-01 -8.62725444E-02  1.30704383E-13  1.17345891E-12  8.56796764E-01
 -1.93037974E-07 -2.27221060E-13 -3.32898791E-12 -1.21932444E+00  2.74716156E-07
 -6.95336617E-13 -3.17857060E-08  3.17861922E-08 -1.51685626E-13  1.62906936E-01
 -1.00012099E-01  2.25329203E-08  1.88967572E-07 -3.62391520E-07 -7.26358656E-01
  1.39297797E+00  7.26358467E-01 -1.39297760E+00 -6.06324010E-07 -4.90176447E-06
  1.93037960E-07  8.56796805E-01  1.10375704E-06  1.42627498E-05 -2.74716144E-07
 -1.21932448E+00  3.03588416E-06  1.41080510E-01 -1.41082634E-01  7.50170804E-07
  3.67032479E-08 -2.25329200E-08 -1.00012113E-01 -8.38730632E-01  1.60847083E+00
  4.19359134E-01 -8.04237637E-01  4.19359462E-01 -8.04238265E-01 -2.31630778E-03
 -1.91458337E+00  8.24940054E-14 -9.33622885E-07 -2.85085238E-01  4.24296389E+00
 -1.01793442E-13  1.67857194E-06  8.28301543E-01 -1.19709976E-01 -1.19709651E-01
 -7.64820196E-02  1.18896691E-14 -7.01475525E-15  1.27155877E-07  2.49731730E-01
 -1.26540840E+00  2.49730372E-01 -1.26540530E+00  2.49730372E-01 -1.26540530E+00
  6.00700751E-17  2.30988888E-15 -2.76994732E-02 -3.54237342E-10 -1.48620004E-15
 -7.10572003E-15 -1.83158412E-02 -2.34234395E-10 -3.75122567E-17  7.10127739E-09
 -7.10128600E-09  1.04743675E-14  6.41183116E-01  7.66849000E-01  9.80695130E-09
  5.84218498E-10 -1.70931680E-10  3.95623632E-02 -1.15753304E-02 -3.95623638E-02
  1.15753305E-02 -1.83339574E-08 -1.89432528E-07  3.54237690E-10 -2.76994411E-02
 -1.00411516E-07  4.88547668E-07  2.34233109E-10 -1.83158034E-02  2.09729923E-07
  5.55280648E-01 -5.55280707E-01  1.83683952E-07 -8.19985179E-09 -9.80695343E-09
  7.66849184E-01  4.56824321E-02 -1.33661084E-02 -2.28414863E-02  6.68292554E-03
 -2.28414853E-02  6.68292524E-03 -4.18293343E-02 -3.72464590E-01  4.58731139E-15
  1.67820590E-07  4.22861535E-02  1.18940705E+00 -7.56233638E-15  1.50490814E-07
  3.31713059E-01  4.98438730E-01  4.98438430E-01 -1.03206182E+00  1.69354537E-14
 -2.72158018E-15  8.11190724E-08 -3.29077083E-01 -2.22959413E-01 -3.29076995E-01
 -2.22959176E-01 -3.29076995E-01 -2.22959176E-01  1.64826017E-15  3.06590844E-14
 -1.32464931E-01  3.62667484E-10  2.48747560E-15 -8.28706890E-14 -4.15502947E-01
  1.13758690E-09 -2.02672893E-14 -2.06526539E-09  2.06525306E-09  1.50856478E-14
  8.71032695E-01 -7.22986118E-01  1.97941898E-09 -2.09445786E-09  2.59889144E-10
  6.62513651E-01 -8.22016850E-02 -6.62513649E-01  8.22016848E-02  5.16562818E-08
 -1.48754640E-07 -3.62668458E-10 -1.32465242E-01 -6.98034042E-08 -7.31077631E-07
 -1.13758147E-09 -4.15502613E-01 -2.41806172E-07  7.54336742E-01 -7.54336727E-01
  1.89247256E-07  2.38474975E-09 -1.97942434E-09 -7.22985979E-01  7.65005437E-01
 -9.49184860E-02 -3.82502383E-01  4.74595069E-02 -3.82502387E-01  4.74595074E-02
 -4.72500104E-01  3.02391727E+00 -3.08021863E-15 -9.83700420E-08 -7.51112896E-02
  1.96913417E+00 -4.97425021E-15  1.86467304E-07  2.77430849E-01 -1.84363044E+00
 -1.84363061E+00 -1.84808505E+00  1.67107228E-15 -1.23741236E-15 -4.60100723E-08
  1.44229997E-01 -4.88624044E-01  1.44229777E-01 -4.88623676E-01  1.44229777E-01
 -4.88623676E-01
Orthonormal basis                          R   N=         441
  3.57576931E-02  1.69081598E-01  2.38833279E-18  1.79984470E-08  2.26450754E-02
  1.86735499E-01 -7.17446024E-20  2.08280187E-08  3.56377543E-02  1.32979691E-01
  1.32979691E-01  1.25000799E-01  1.90112809E-19 -1.61938759E-19  7.46854616E-09
  8.46939014E-02  1.36258329E-01  8.46938536E-02  1.36258286E-01  8.46938536E-02
  1.36258286E-01  2.04594629E-15  3.50743208E-16  2.83965087E-01 -4.64431747E-15
  3.41871648E-16 -1.01402395E-16  3.58176566E-01 -6.28930043E-15  9.35776227E-17
  5.29682229E-16 -7.18877356E-16  1.09793816E-16 -8.23260745E-02  6.43719092E-02
 -9.64236229E-16 -4.75707269E-15 -3.97294918E-15  2.35837658E-01  1.87530578E-01
 -2.35837658E-01 -1.87530578E-01 -6.66224950E-09 -3.31250279E-08  4.74720017E-15
  2.87887179E-01  2.59140810E-08 -4.77709292E-08  6.06346053E-15  3.62734048E-01
  1.58312482E-08 -3.89875801E-02  3.89875278E-02 -2.37992861E-08 -1.40583177E-15
  1.09639860E-15  6.46961183E-02  2.71061742E-01  2.18150314E-01 -1.35530871E-01
 -1.09075201E-01 -1.35530871E-01 -1.09075201E-01 -5.85575805E-02 -1.54855870E-01
 -8.40464779E-17 -2.21463302E-09  4.57006610E-01 -8.28101141E-02  2.73359735E-17
 -2.45214131E-08  4.89802184E-01 -9.58415623E-02 -9.58415918E-02 -1.31240711E-01
 -4.63110376E-17  3.70679526E-17  1.65360333E-08  1.08990121E-01  7.37303276E-02
  1.08990166E-01  7.37303680E-02  1.08990166E-01  7.37303680E-02 -1.18812105E-16
 -9.92239439E-17  2.80391045E-01 -2.32417048E-16  5.14450969E-17  6.57094760E-17
  2.38316877E-01 -4.55835571E-16 -2.76312798E-17 -2.57578852E-16  5.23737697E-16
 -1.13394395E-16  6.46590714E-01 -5.05578323E-01  1.12620442E-15  3.06063187E-16
  1.00663052E-16 -1.95392133E-01  3.45468332E-02  1.95392133E-01 -3.45468332E-02
  7.76666631E-08  5.64128957E-08 -3.95943643E-16 -2.38773077E-01  5.94145816E-08
 -2.50946856E-08 -3.87193020E-16 -1.90897313E-01  6.17569030E-09 -1.06435539E-01
  1.06435593E-01  4.13201231E-08 -9.95238211E-16  9.03674705E-16  8.72033655E-01
  2.00883283E-01 -2.56995157E-02 -1.00441653E-01  1.28496613E-02 -1.00441653E-01
  1.28496613E-02 -3.38038600E-17 -3.17357195E-17 -4.23133848E-17  1.34013787E-16
  8.62210102E-17  1.18630299E-17 -2.24043364E-17 -2.11771442E-16 -1.00965771E-16
 -4.39056598E-17  3.52599470E-18 -2.33585577E-19  6.15968807E-01  7.87770544E-01
 -1.48959481E-16  4.12049348E-17  1.27339379E-16  4.19308971E-17  7.82974147E-17
 -1.09602013E-16 -1.04924822E-16  9.72420208E-01  9.42954719E-02 -1.57844993E-15
 -7.20762461E-08  1.34626693E-01 -1.66387869E-02 -1.93853119E-15 -1.80866359E-08
  7.79674744E-02 -5.62492732E-02 -5.62491546E-02  2.69541972E-02  5.86708039E-16
 -4.12761371E-16 -1.71228763E-07 -7.46714542E-02 -5.59523594E-02 -7.46715371E-02
 -5.59523969E-02 -7.46715371E-02 -5.59523969E-02 -2.17556889E-01  3.85603266E-01
 -1.84797385E-16 -1.36649947E-06  4.53619492E-01 -9.69439360E-02 -2.37525232E-16
 -4.72191255E-07  1.27559486E-01  6.71068087E-02  6.71105966E-02  6.86989962E-01
  1.66441096E-16 -1.16607140E-16 -1.43433138E-06 -2.23755258E-01 -2.47090566E-01
 -2.23756848E-01 -2.47090886E-01 -2.23756848E-01 -2.47090886E-01 -5.02522358E-07
  1.25344372E-06  4.42116502E-16  3.77718761E-01  1.44552609E-06 -3.47378804E-07
  2.09072846E-17  1.40421938E-01  3.42374952E-07  6.50922931E-01 -6.50922846E-01
  2.51890003E-06  3.25781404E-16 -1.47559689E-16  3.93691951E-01 -2.96620411E-01
 -4.21349343E-02  1.48309244E-01  2.10662409E-02  1.48309244E-01  2.10662409E-02
  5.03386465E-04 -2.52272608E-01  9.35089905E-16 -1.53478056E-07 -2.62011390E-01
  1.60998521E-01  2.06006690E-16  4.15489756E-08  7.11849885E-02 -5.80094193E-01
 -5.80093740E-01  6.48481300E-01 -1.54717244E-16  1.69323862E-17  9.03273675E-09
 -8.01013187E-02  2.67976243E-01 -8.01013443E-02  2.67976162E-01 -8.01013443E-02
  2.67976162E-01 -2.06279488E-16  5.20946642E-15  1.08618499E+00  1.88475326E-14