Title Card Required                                                     
SP        UB3LYP                                                      6-31G(d)            
Number of atoms                            I                4
Info1-9                                    I   N=           9
          14          13           0           0           0         110
           1          18        -502
Full Title                                 C   N=           2
Title Card Required     
Route                                      C   N=           2
# b3lyp/6-31g(d) nosymm 
Charge                                     I                0
Multiplicity                               I                2
Number of electrons                        I                9
Number of alpha electrons                  I                5
Number of beta electrons                   I                4
Number of basis functions                  I               21
Number of independent functions            I               21
Number of point charges in /Mol/           I                0
Number of translation vectors              I                0
Atomic numbers                             I   N=           4
           6           1           1           1
Nuclear charges                            R   N=           4
  6.00000000E+00  1.00000000E+00  1.00000000E+00  1.00000000E+00
Current cartesian coordinates              R   N=          12
  0.00000000E+00  0.00000000E+00 -1.44623386E+00  0.00000000E+00 -1.92942927E+00
 -2.20055773E+00 -1.67093552E+00  9.64714635E-01 -2.20055773E+00  1.67093552E+00
  9.64714635E-01 -2.20055773E+00
Number of symbols in /Mol/                 I                0
Force Field                                I                0
Atom Types                                 C   N=           4
                                                
Int Atom Types                             I   N=           4
           0           0           0           0
MM charges                                 R   N=           4
  0.00000000E+00  0.00000000E+00  0.00000000E+00  0.00000000E+00
Integer atomic weights                     I   N=           4
          12           1           1           1
Real atomic weights                        R   N=           4
  1.20000000E+01  1.00782504E+00  1.00782504E+00  1.00782504E+00
Atom fragment info                         I   N=           4
           0           0           0           0
Atom residue num                           I   N=           4
           0           0           0           0
Nuclear spins                              I   N=           4
           0           1           1           1
Nuclear ZEff                               R   N=           4
 -3.60000000E+00 -1.00000000E+00 -1.00000000E+00 -1.00000000E+00
Nuclear ZNuc                               R   N=           4
  6.00000000E+00  1.00000000E+00  1.00000000E+00  1.00000000E+00
Nuclear QMom                               R   N=           4
  0.00000000E+00  0.00000000E+00  0.00000000E+00  0.00000000E+00
Nuclear GFac                               R   N=           4
  0.00000000E+00  2.79284600E+00  2.79284600E+00  2.79284600E+00
MicOpt                                     I   N=           4
          -1          -1          -1          -1
Number of residues                         I                0
Number of secondary structures             I                0
Number of contracted shells                I               10
Number of primitive shells                 I               23
Pure/Cartesian d shells                    I                1
Pure/Cartesian f shells                    I                0
Highest angular momentum                   I                2
Largest degree of contraction              I                6
Shell types                                I   N=          10
           0          -1          -1           2           0           0
           0           0           0           0
Number of primitives per shell             I   N=          10
           6           3           1           1           3           1
           3           1           3           1
Shell to atom map                          I   N=          10
           1           1           1           1           2           2
           3           3           4           4
Primitive exponents                        R   N=          23
  3.04752488E+03  4.57369518E+02  1.03948685E+02  2.92101553E+01  9.28666296E+00
  3.16392696E+00  7.86827235E+00  1.88128854E+00  5.44249258E-01  1.68714478E-01
  8.00000000E-01  1.87311370E+01  2.82539436E+00  6.40121692E-01  1.61277759E-01
  1.87311370E+01  2.82539436E+00  6.40121692E-01  1.61277759E-01  1.87311370E+01
  2.82539436E+00  6.40121692E-01  1.61277759E-01
Contraction coefficients                   R   N=          23
  1.83473713E-03  1.40373228E-02  6.88426223E-02  2.32184443E-01  4.67941348E-01
  3.62311985E-01 -1.19332420E-01 -1.60854152E-01  1.14345644E+00  1.00000000E+00
  1.00000000E+00  3.34946043E-02  2.34726953E-01  8.13757326E-01  1.00000000E+00
  3.34946043E-02  2.34726953E-01  8.13757326E-01  1.00000000E+00  3.34946043E-02
  2.34726953E-01  8.13757326E-01  1.00000000E+00
P(S=P) Contraction coefficients            R   N=          23
  0.00000000E+00  0.00000000E+00  0.00000000E+00  0.00000000E+00  0.00000000E+00
  0.00000000E+00  6.89990666E-02  3.16423961E-01  7.44308291E-01  1.00000000E+00
  0.00000000E+00  0.00000000E+00  0.00000000E+00  0.00000000E+00  0.00000000E+00
  0.00000000E+00  0.00000000E+00  0.00000000E+00  0.00000000E+00  0.00000000E+00
  0.00000000E+00  0.00000000E+00  0.00000000E+00
Coordinates of each shell                  R   N=          30
  0.00000000E+00  0.00000000E+00 -1.44623386E+00  0.00000000E+00  0.00000000E+00
 -1.44623386E+00  0.00000000E+00  0.00000000E+00 -1.44623386E+00  0.00000000E+00
  0.00000000E+00 -1.44623386E+00  0.00000000E+00 -1.92942927E+00 -2.20055773E+00
  0.00000000E+00 -1.92942927E+00 -2.20055773E+00 -1.67093552E+00  9.64714635E-01
 -2.20055773E+00 -1.67093552E+00  9.64714635E-01 -2.20055773E+00  1.67093552E+00
  9.64714635E-01 -2.20055773E+00  1.67093552E+00  9.64714635E-01 -2.20055773E+00
Num ILSW                                   I              100
ILSW                                       I   N=         100
           1           1           0           0           2           0
           0           0           0           0         402          -1
           5           0           0           0           0           0
           0           0           1           0           0           0
           1           1           0           0           0           0
           0           0      100000           0          -1           0
           0           0           0           0           0           0
           0           0           0           1           0           0
           0 -2000000000           1           0           0           0
           0           0           4          52           0           0
           0           0           5           0           0           0
           0           0           0           0           0           1
           0           0           0           0           0           0
           0           0           0           0           0           0
           0           0           0           0           0           0
           0           0           0           0           0           0
           0           0           0           0
Num RLSW                                   I               52
RLSW                                       R   N=          52
  8.00000000E-01  7.20000000E-01  1.00000000E+00  8.10000000E-01  2.00000000E-01
  0.00000000E+00  0.00000000E+00  1.00000000E+00  0.00000000E+00  0.00000000E+00
  0.00000000E+00  0.00000000E+00  1.00000000E+00  0.00000000E+00  0.00000000E+00
  0.00000000E+00  0.00000000E+00  1.00000000E+00  0.00000000E+00  0.00000000E+00
  0.00000000E+00  0.00000000E+00  1.00000000E+00  0.00000000E+00  0.00000000E+00
  0.00000000E+00  0.00000000E+00  1.00000000E+00  0.00000000E+00  0.00000000E+00
  0.00000000E+00  0.00000000E+00  1.00000000E+00  0.00000000E+00  0.00000000E+00
  0.00000000E+00  0.00000000E+00  0.00000000E+00  1.00000000E+00  1.00000000E+00
  0.00000000E+00  1.00000000E+00  0.00000000E+00  0.00000000E+00  0.00000000E+00
  0.00000000E+00  0.00000000E+00  0.00000000E+00  0.00000000E+00  0.00000000E+00
  0.00000000E+00  0.00000000E+00
MxBond                                     I                3
NBond                                      I   N=           4
           3           1           1           1
IBond                                      I   N=          12
           2           3           4           1           0           0
           1           0           0           1           0           0
RBond                                      R   N=          12
  1.00000000E+00  1.00000000E+00  1.00000000E+00  1.00000000E+00  0.00000000E+00
  0.00000000E+00  1.00000000E+00  0.00000000E+00  0.00000000E+00  1.00000000E+00
  0.00000000E+00  0.00000000E+00
Virial Ratio                               R      2.010178030172751E+00
SCF Energy                                 R     -3.982470902446099E+01
Total Energy                               R     -3.982470902446099E+01
S**2                                       R      7.523921476509443E-01
S**2 after annihilation                    R      7.500041886599926E-01
RMS Density                                R      1.436756680044978E-09
Job Status                                 I                1
Nuclear derivative order                   I                0
External E-field                           R   N=          35
  0.00000000E+00  0.00000000E+00  0.00000000E+00  0.00000000E+00  0.00000000E+00
  0.00000000E+00  0.00000000E+00  0.00000000E+00  0.00000000E+00  0.00000000E+00
  0.00000000E+00  0.00000000E+00  0.00000000E+00  0.00000000E+00  0.00000000E+00
  0.00000000E+00  0.00000000E+00  0.00000000E+00  0.00000000E+00  0.00000000E+00
  0.00000000E+00  0.00000000E+00  0.00000000E+00  0.00000000E+00  0.00000000E+00
  0.00000000E+00  0.00000000E+00  0.00000000E+00  0.00000000E+00  0.00000000E+00
  0.00000000E+00  0.00000000E+00  0.00000000E+00  0.00000000E+00  0.00000000E+00
IOpCl                                      I                1
IROHF                                      I                0
Alpha Orbital Energies                     R   N=          21
 -1.02035175E+01 -6.89267486E-01 -4.00505631E-01 -4.00505620E-01 -2.63904905E-01
  1.19128837E-01  1.68552058E-01  1.68552089E-01  5.31202585E-01  5.31202715E-01
  5.31666277E-01  8.53155461E-01  8.77328429E-01  8.77328504E-01  9.67307768E-01
  1.64168087E+00  1.64168092E+00  1.83181014E+00  2.22661041E+00  2.22661073E+00
  4.06686165E+00
Beta Orbital Energies                      R   N=          21
 -1.01884400E+01 -6.54838113E-01 -3.88709158E-01 -3.88709150E-01 -7.76751771E-02
  1.27340032E-01  1.81737478E-01  1.81737478E-01  5.40569341E-01  5.40569514E-01
  6.10595384E-01  8.72297430E-01  8.91062765E-01  8.91062779E-01  9.88356030E-01
  1.69092028E+00  1.69092033E+00  1.92312194E+00  2.25901487E+00  2.25901523E+00
  4.10575735E+00
Alpha MO coefficients                      R   N=         441
  9.92584218E-01  5.01931718E-02  1.07371105E-15 -9.05053614E-10 -2.75353728E-04
 -1.19023087E-02  6.84551010E-16  1.91458151E-09  1.59887289E-03 -1.00005750E-02
 -1.00005759E-02 -9.54506166E-03  9.93756595E-18 -2.72212476E-17 -1.58712238E-09
 -1.95540152E-04  2.52462427E-03 -1.95540878E-04  2.52462210E-03 -1.95540878E-04
  2.52462210E-03 -2.01175232E-01  3.96459520E-01 -1.21594657E-15 -1.50106136E-07
 -7.21845768E-02  3.97545337E-01  4.01995393E-16 -2.43958297E-08 -3.03814867E-02
 -1.41493500E-04 -1.41489224E-04 -1.75653316E-03 -1.67578858E-16  4.76406460E-17
  2.27576428E-08  1.46888614E-01  3.81846767E-02  1.46888484E-01  3.81846410E-02
  1.46888484E-01  3.81846410E-02 -7.06743137E-16  3.05059803E-15  4.60887910E-01
  1.19354042E-08  1.26317195E-16 -1.04448445E-14  2.00017570E-01  5.17976264E-09
  4.05747197E-15  4.47610750E-10 -4.47608623E-10  1.51502568E-15  1.99584244E-02
 -1.93271334E-02 -5.00505965E-10 -7.16668203E-09 -6.17932122E-09 -2.39666369E-01
 -2.06647493E-01  2.39666377E-01  2.06647499E-01 -4.96507482E-08  5.55355919E-08
 -1.19354027E-08  4.60887959E-01  7.99772949E-08  2.29574833E-07 -5.17976323E-09
  2.00017552E-01  3.64145131E-08  1.72845391E-02 -1.72845159E-02  2.43147290E-08
 -5.16854400E-10  5.00506027E-10 -1.93271332E-02 -2.76742883E-01 -2.38615977E-01
  1.38371472E-01  1.19308035E-01  1.38371460E-01  1.19308024E-01 -6.65688562E-02
  1.49283767E-01  6.32691770E-16 -8.20387454E-08  5.67250189E-01  2.93869933E-01
  4.73193057E-15 -3.88582157E-08  4.49216680E-01 -6.76626058E-03 -6.76624877E-03
 -3.81269371E-03  1.46638558E-16 -8.97937919E-17  2.82652998E-09 -6.68588100E-02
 -6.29957390E-02 -6.68588608E-02 -6.29958270E-02 -6.68588608E-02 -6.29958270E-02
 -1.44211807E-01  2.01440042E-01  3.69960234E-14  3.17385350E-07 -1.70535532E-01
  2.26233371E+00  1.37274986E-13  6.09432569E-07 -6.46427745E-01 -1.40742141E-02
 -1.40741745E-02 -2.54566282E-03 -7.51067124E-16  3.74427116E-16  2.23581542E-08
 -3.53048714E-02 -1.16325114E+00 -3.53051132E-02 -1.16325225E+00 -3.53051132E-02
 -1.16325225E+00  1.43850706E-15 -7.25526141E-16  4.13868220E-01 -5.17166308E-08
  7.58996590E-15  8.93470579E-14  1.27800593E+00 -1.59698607E-07 -2.46882695E-14
  1.83215627E-09 -1.83216355E-09 -1.03404621E-14 -1.69303194E-02  9.35602302E-03
 -1.16912157E-09 -1.53651442E-08 -2.14244292E-07  1.06487674E-01  1.48481209E+00
 -1.06487659E-01 -1.48481188E+00  1.01235396E-07 -1.37115957E-07  5.17166465E-08
  4.13868132E-01  8.96255637E-08 -2.53691242E-06  1.59698597E-07  1.27800597E+00
  7.00568779E-07 -1.46620668E-02  1.46620931E-02  3.93230641E-08 -2.11559981E-09
  1.16912174E-09  9.35602957E-03  1.22961334E-01  1.71451483E+00 -6.14807374E-02
 -8.57255405E-01 -6.14807640E-02 -8.57255776E-01 -3.72633615E-07  3.47000205E-06
 -1.10723548E-09 -7.53408625E-01  1.47097999E-05 -3.46729174E-07  2.15016747E-09
  1.46306742E+00 -1.65951991E-05 -7.28539788E-02  7.28540282E-02  3.85382302E-07
 -1.23630675E-10  8.74237190E-11  5.94879436E-02  4.61538887E-01  2.29431332E-01
 -2.30770624E-01 -1.14717587E-01 -2.30770625E-01 -1.14717588E-01 -1.05785773E-14
  1.19370524E-13 -7.53408818E-01  1.10722576E-09  3.87533483E-13 -4.21908661E-14
  1.46306804E+00 -2.15016041E-09 -4.36984378E-13  1.07069545E-10 -1.07067132E-10
  9.98353333E-15 -8.41245705E-02  5.94879794E-02 -8.74257572E-11 -6.78315180E-10
 -3.37205173E-10  3.99705056E-01  1.98694999E-01 -3.99705056E-01 -1.98694999E-01
  2.77236287E-02 -2.32133695E-01 -3.02205279E-13 -1.06877717E-05 -1.02438775E+00
 -4.61411648E-02  5.92519316E-13  2.09394906E-05  1.17870301E+00 -4.49397404E-03
 -4.49188264E-03 -3.00539420E-02 -3.43498221E-14  2.40452638E-14  8.48135987E-07
  5.52512233E-02  1.17514320E-01  5.52411822E-02  1.17509461E-01  5.52411822E-02
  1.17509461E-01 -9.78293748E-02 -6.01894070E-01  7.65613332E-14  3.28468245E-06
 -1.47410726E-01  1.88167550E+00 -1.21472729E-13 -5.74141542E-06 -4.63380126E-01
 -1.67713972E-01 -1.67712721E-01  1.47170839E-01 -1.61609741E-14  1.28837209E-14
  4.04167208E-07 -6.99414090E-01 -1.26899776E-01 -6.99419313E-01 -1.26888513E-01
 -6.99419313E-01 -1.26888513E-01  5.97132462E-15  3.22715931E-13 -8.35221442E-01
  3.57473483E-08 -2.77490293E-14 -7.33003126E-13  1.22890072E+00 -5.25967488E-08
  1.47161388E-13 -5.93374765E-09  5.93379571E-09 -2.03474178E-15  1.60087748E-01
 -1.26480633E-01  5.41334903E-09  3.58180622E-08 -6.97782650E-08 -7.24754078E-01
  1.41191959E+00  7.24754042E-01 -1.41191952E+00 -4.13831434E-07 -4.51737088E-06
 -3.57473271E-08 -8.35221636E-01 -4.48198272E-07  1.22884708E-05  5.25967372E-08
  1.22890093E+00 -2.70663687E-06  1.38639245E-01 -1.38640893E-01  5.06942050E-07
  6.85173043E-09 -5.41335054E-09 -1.26480627E-01 -8.36876458E-01  1.63034267E+00
  4.18434247E-01 -8.15174142E-01  4.18434309E-01 -8.15174263E-01 -9.11165683E-04
 -1.89398358E+00 -1.13194242E-13  1.01626647E-06  3.19192918E-01  4.21008744E+00
  1.51723113E-13 -1.81689472E-06 -8.50261595E-01 -9.92425216E-02 -9.92421412E-02
 -9.42299848E-02  2.29330030E-14 -1.71772477E-14  1.37577966E-07  2.73078191E-01
 -1.27924304E+00  2.73076656E-01 -1.27923960E+00  2.73076656E-01 -1.27923960E+00
  9.88882005E-18  3.79168753E-15 -2.46914759E-03  5.86296679E-11 -1.05032546E-15
 -9.36307317E-15  1.16019376E-02 -2.75483487E-10  3.06192389E-15 -1.25992971E-08
  1.25993123E-08 -1.44780699E-14  6.12704634E-01  7.90287846E-01 -1.87650761E-08
  3.92233470E-11 -1.83036202E-10 -1.43046579E-03  6.67578420E-03  1.43046575E-03
 -6.67578402E-03  6.93343990E-09 -5.31731294E-08 -5.86282655E-11 -2.46918682E-03
 -3.49294672E-09  5.03603284E-08  2.75486820E-10  1.16019405E-02  1.20293308E-08
  5.30617268E-01 -5.30617959E-01  6.86012223E-07  1.45484328E-08  1.87650701E-08
  7.90287993E-01 -1.65179126E-03  7.70854727E-03  8.25915701E-04 -3.85429679E-03
  8.25915768E-04 -3.85429711E-03 -5.18948446E-02 -3.30618806E-01 -3.36075805E-15
 -5.77317500E-08 -1.69280098E-02  1.20915143E+00  4.16150447E-16 -1.84882054E-07
 -3.50441221E-01  4.92207762E-01  4.92206700E-01 -1.03196917E+00  9.29073949E-15
 -4.75142395E-15  4.13221670E-07 -3.51271467E-01 -2.21555893E-01 -3.51271600E-01
 -2.21555503E-01 -3.51271600E-01 -2.21555503E-01  1.83309901E-15  3.07771896E-14
  1.44971239E-01 -1.31450837E-10 -4.27755015E-15 -9.11780170E-14  4.13413922E-01
 -3.74870201E-10  2.14179035E-14 -7.00402753E-10  7.00398534E-10  1.36021801E-14
  8.91916940E-01 -6.93081939E-01  6.28450764E-10 -7.04046300E-10  9.34380134E-11
  6.72426639E-01 -8.92218991E-02 -6.72426638E-01  8.92218990E-02  4.95509377E-08
 -6.04834898E-08  1.31451361E-10  1.44971524E-01  1.17846382E-07 -8.91685873E-07
  3.74868368E-10  4.13413608E-01  2.57791410E-07  7.72422919E-01 -7.72423062E-01
  3.23236334E-07  8.08748525E-10 -6.28455754E-10 -6.93081830E-01  7.76452000E-01
 -1.03024688E-01 -3.88225608E-01  5.15126521E-02 -3.88225609E-01  5.15126523E-02
 -4.72979312E-01  3.01779286E+00  6.71508359E-15  1.25438568E-07  7.19212819E-02
  1.98048688E+00 -7.76412891E-15 -2.17571308E-07 -2.75907208E-01 -1.84542324E+00
 -1.84542338E+00 -1.84570490E+00  1.94256212E-15 -1.41557779E-15 -5.90783428E-08
  1.44656935E-01 -4.91111272E-01  1.44656712E-01 -4.91110874E-01  1.44656712E-01
 -4.91110874E-01
Beta MO coefficients                       R   N=         441
  9.93042010E-01  4.72708898E-02  1.34658251E-15  6.77886390E-11 -8.88416756E-04
 -1.19344797E-02  6.59396943E-16  5.06349247E-10  1.72836541E-03 -8.70257317E-03
 -8.70257062E-03 -9.44742781E-03  7.86944886E-16 -6.57799224E-16 -4.94968308E-10
 -3.01913507E-04  2.56269579E-03 -3.01913096E-04  2.56269455E-03 -3.01913096E-04
  2.56269455E-03 -1.91967423E-01  3.72328256E-01 -5.33915126E-16 -1.49952061E-07
 -1.12940784E-01  3.47681081E-01 -2.06088134E-15 -2.74009812E-08 -3.76162672E-02
  9.18274916E-03  9.18275911E-03 -2.01992529E-02 -5.88555200E-16  3.46004702E-16
  9.82664172E-09  1.58546974E-01  5.77881537E-02  1.58546840E-01  5.77881155E-02
  1.58546840E-01  5.77881155E-02 -4.00265742E-08  4.05488414E-08  6.70513236E-09
  4.42670926E-01 -3.13502432E-08  1.99445541E-07  2.77297413E-09  1.83070939E-01
 -3.50821080E-08  1.73716288E-02 -1.73716052E-02 -1.35029359E-08  3.03833177E-10
 -4.11173481E-10 -2.71455500E-02 -2.85575147E-01 -2.63899123E-01  1.42787620E-01
  1.31949613E-01  1.42787627E-01  1.31949620E-01  9.90401148E-16  6.07732718E-16
  4.42670801E-01 -6.70513354E-09 -3.18888620E-16 -1.74815562E-14  1.83070970E-01
 -2.77297376E-09  3.84496998E-15 -2.63127135E-10  2.63127878E-10  1.12306024E-15
  2.00589933E-02 -2.71455562E-02  4.11173402E-10  4.32560584E-09  3.99728660E-09
 -2.47315375E-01 -2.28543373E-01  2.47315371E-01  2.28543369E-01 -7.81965313E-02
  1.40616196E-01  6.65376087E-16 -4.06780842E-08  4.63000352E-01  3.75256600E-01
  6.49331181E-15 -2.76015085E-08  5.36662663E-01  5.90981819E-03  5.90983401E-03
 -3.32599085E-02 -1.04990173E-16  2.22508887E-16 -5.00730221E-08 -5.78718126E-02
 -7.10859016E-02 -5.78717829E-02 -7.10858647E-02 -5.78717829E-02 -7.10858647E-02
 -1.46334806E-01  1.88785181E-01  3.32193674E-14  2.84097991E-07 -1.74314423E-01
  2.30400334E+00  1.29830617E-13  4.48732807E-07 -6.59986465E-01 -8.25580567E-03
 -8.25576795E-03 -1.50998106E-02 -4.22684645E-16 -1.19865489E-15  4.85378710E-09
 -2.50945877E-02 -1.17605145E+00 -2.50947958E-02 -1.17605225E+00 -2.50947958E-02
 -1.17605225E+00  7.70270748E-08 -7.53226442E-08 -1.25093549E-04  4.16018972E-01
  4.41509116E-08 -2.27348022E-06 -3.89754531E-04  1.29619216E+00  6.96528401E-07
 -1.29442116E-02  1.29442354E-02  3.72775615E-09  4.49435411E-06  2.05458333E-06
 -6.83283747E-03  1.04416843E-01  1.73303018E+00 -5.22357142E-02 -8.66964750E-01
 -5.21813325E-02 -8.66062165E-01 -2.31749263E-11  2.26697049E-11 -4.16019004E-01
 -1.25093540E-04 -1.32921010E-11  6.83824065E-10 -1.29619227E+00 -3.89754498E-04
 -2.09498030E-10  3.89221974E-06 -3.89222687E-06 -1.11787321E-12  1.49467077E-02
  6.83285201E-03  2.05457895E-06 -3.13973001E-05 -5.21108156E-04 -9.04119599E-02
 -1.50058636E+00  9.04433572E-02  1.50110746E+00  2.35700557E-08  7.34428723E-08
 -2.85222245E-09 -7.40609685E-01  4.39568360E-08 -9.01557303E-07  5.60972282E-09
  1.45662492E+00  2.50514902E-07 -7.41684845E-02  7.41684019E-02  8.33590866E-09
 -3.29823011E-10  2.23313991E-10  5.79860848E-02  4.74051173E-01  2.20059312E-01
 -2.37025621E-01 -1.10029076E-01 -2.37025624E-01 -1.10029077E-01 -4.75796906E-17
  2.94451481E-14 -7.40609783E-01  2.85221655E-09 -4.73055942E-15 -5.68354770E-14
  1.45662525E+00 -5.60971794E-09  1.34652745E-14  2.85634802E-10 -2.85635921E-10
 -1.04477029E-15 -8.56423928E-02  5.79861455E-02 -2.23314833E-10 -1.82565637E-09
 -8.47468636E-10  4.10540461E-01  1.90576841E-01 -4.10540460E-01 -1.90576840E-01
  3.82638321E-02 -1.70877109E-01  4.23887082E-15  1.45202060E-07 -1.07436857E+00
 -2.53010015E-01 -2.20230651E-15 -1.29702307E-07  1.17199665E+00 -1.59764383E-02
 -1.59764557E-02 -1.11764504E-02  1.36905454E-17  1.35269907E-17  1.00674559E-07
  7.45816631E-02  1.63013857E-01  7.45814717E-02  1.63014157E-01  7.45814717E-02
  1.63014157E-01 -1.03333720E-01 -5.18046810E-01  2.43577688E-14  4.93972553E-06
 -1.84463737E-01  1.75656828E+00 -4.25878018E-14 -7.93428543E-06 -4.18165833E-01
 -1.54702841E-01 -1.54701092E-01  1.21524038E-01 -4.97937716E-15  3.65403165E-15
  4.82834658E-07 -7.15732591E-01 -8.62879616E-02 -7.15740022E-01 -8.62725444E-02
 -7.15740022E-01 -8.62725444E-02  1.42821101E-13  1.31334016E-12 -8.56796764E-01
  2.08227563E-07  2.37898990E-13 -3.70006413E-12  1.21932444E+00 -2.96332754E-07
  7.81566374E-13 -3.42868334E-08  3.42873506E-08 -1.75608122E-13  1.62906936E-01
 -1.00012099E-01  2.43059699E-08  2.03836882E-07 -3.90907000E-07 -7.26358664E-01
  1.39297798E+00  7.26358460E-01 -1.39297759E+00 -6.06324011E-07 -4.90176438E-06
 -2.08227543E-07 -8.56796805E-01 -1.10375707E-06  1.42627496E-05  2.96332749E-07
  1.21932448E+00 -3.03588411E-06  1.41080510E-01 -1.41082634E-01  7.50170806E-07
  3.95913172E-08 -2.43059687E-08 -1.00012113E-01 -8.38730632E-01  1.60847083E+00
  4.19359121E-01 -8.04237612E-01  4.19359475E-01 -8.04238289E-01 -2.31630778E-03
 -1.91458337E+00 -9.35959751E-14  9.33622843E-07  2.85085238E-01  4.24296389E+00
  1.14962129E-13 -1.67857187E-06 -8.28301543E-01 -1.19709976E-01 -1.19709651E-01
 -7.64820196E-02  1.73005547E-14 -1.06508168E-14  1.27155878E-07  2.49731730E-01
 -1.26540840E+00  2.49730372E-01 -1.26540530E+00  2.49730372E-01 -1.26540530E+00
 -3.42368827E-16 -2.40111049E-15  2.76994732E-02  9.86516832E-11 -6.06610116E-16
  8.45532648E-15  1.83158412E-02  6.52330877E-11 -2.96517582E-15  1.97766128E-09
 -1.97765103E-09 -9.35351868E-15  6.41183116E-01  7.66849000E-01  2.73116656E-09
  1.62696917E-10 -4.76054785E-11  3.95623634E-02 -1.15753304E-02 -3.95623636E-02
  1.15753305E-02 -1.83339552E-08 -1.89432532E-07 -9.86528968E-11  2.76994411E-02
  1.00411519E-07  4.88547645E-07 -6.52309556E-11  1.83158034E-02 -2.09729922E-07
  5.55280648E-01 -5.55280707E-01  1.83683973E-07 -2.28360230E-09 -2.73116533E-09
  7.66849184E-01  4.56824321E-02 -1.33661084E-02 -2.28414860E-02  6.68292543E-03
 -2.28414857E-02  6.68292535E-03 -4.18293343E-02 -3.72464590E-01 -3.84013111E-15
 -1.67820592E-07 -4.22861535E-02  1.18940705E+00  4.51120693E-15 -1.50490815E-07
 -3.31713059E-01  4.98438730E-01  4.98438430E-01 -1.03206182E+00  6.56545967E-15
 -1.98265054E-14  8.11190912E-08 -3.29077083E-01 -2.22959413E-01 -3.29076995E-01
 -2.22959176E-01 -3.29076995E-01 -2.22959176E-01  2.03315658E-15  3.26349385E-14
  1.32464931E-01 -4.89250558E-10 -1.80125682E-15 -9.36677044E-14  4.15502947E-01
 -1.53464031E-09  2.12743308E-14 -2.78610467E-09  2.78609272E-09  1.99094708E-14
  8.71032695E-01 -7.22986118E-01  2.67030713E-09 -2.82549661E-09  3.50597151E-10
  6.62513651E-01 -8.22016851E-02 -6.62513648E-01  8.22016847E-02  5.16562846E-08
 -1.48754687E-07  4.89251650E-10  1.32465242E-01  6.98034080E-08 -7.31077583E-07
  1.53463710E-09  4.15502613E-01  2.41806155E-07  7.54336742E-01 -7.54336727E-01
  1.89247258E-07  3.21710837E-09 -2.67030669E-09 -7.22985979E-01  7.65005437E-01
 -9.49184860E-02 -3.82502383E-01  4.74595068E-02 -3.82502388E-01  4.74595075E-02
 -4.72500104E-01  3.02391727E+00  6.34125367E-15  9.83700438E-08  7.51112896E-02
  1.96913417E+00 -6.14784689E-15 -1.86467304E-07 -2.77430849E-01 -1.84363044E+00
 -1.84363061E+00 -1.84808505E+00  1.92686587E-15 -1.39449906E-15 -4.60100753E-08
  1.44229997E-01 -4.88624044E-01  1.44229777E-01 -4.88623676E-01  1.44229777E-01
 -4.88623676E-01
Orthonormal basis                          R   N=         441
  3.57576931E-02  1.69081598E-01 -2.38833279E-18 -1.79984470E-08 -2.26450754E-02
  1.86735499E-01  7.17446024E-20 -2.08280187E-08 -3.56377543E-02  1.32979691E-01
  1.32979691E-01  1.25000799E-01  1.90112809E-19 -1.61938759E-19  7.46854616E-09
  8.46939014E-02  1.36258329E-01  8.46938536E-02  1.36258286E-01  8.46938536E-02
  1.36258286E-01 -2.04594629E-15 -3.50743208E-16  2.83965087E-01 -4.64431747E-15
  3.41871648E-16  1.01402395E-16  3.58176566E-01 -6.28930043E-15  9.35776227E-17
 -5.29682229E-16  7.18877356E-16 -1.09793816E-16  8.23260745E-02 -6.43719092E-02
  9.64236229E-16  4.75707269E-15  3.97294918E-15 -2.35837658E-01 -1.87530578E-01
  2.35837658E-01  1.87530578E-01  6.66224950E-09  3.31250279E-08  4.74720017E-15
  2.87887179E-01  2.59140810E-08  4.77709292E-08  6.06346053E-15  3.62734048E-01
  1.58312482E-08  3.89875801E-02 -3.89875278E-02  2.37992861E-08  1.40583177E-15
 -1.09639860E-15 -6.46961183E-02 -2.71061742E-01 -2.18150314E-01  1.35530871E-01
  1.09075201E-01  1.35530871E-01  1.09075201E-01  5.85575805E-02  1.54855870E-01
 -8.40464779E-17 -2.21463302E-09  4.57006610E-01  8.28101141E-02  2.73359735E-17
 -2.45214131E-08  4.89802184E-01  9.58415623E-02  9.58415918E-02  1.31240711E-01
  4.63110376E-17 -3.70679526E-17 -1.65360333E-08 -1.08990121E-01 -7.37303276E-02
 -1.08990166E-01 -7.37303680E-02 -1.08990166E-01 -7.37303680E-02 -1.18812105E-16
 -9.92239439E-17 -2.80391045E-01  2.32417048E-16 -5.14450969E-17  6.57094760E-17
 -2.38316877E-01  4.55835571E-16  2.76312798E-17 -2.57578852E-16  5.23737697E-16
 -1.13394395E-16  6.46590714E-01 -5.05578323E-01  1.12620442E-15  3.06063187E-16
  1.00663052E-16 -1.95392133E-01  3.45468332E-02  1.95392133E-01 -3.45468332E-02
  7.76666631E-08  5.64128957E-08  3.95943643E-16  2.38773077E-01 -5.94145816E-08
 -2.50946856E-08  3.87193020E-16  1.90897313E-01 -6.17569030E-09 -1.06435539E-01
  1.06435593E-01  4.13201231E-08 -9.95238211E-16  9.03674705E-16  8.72033655E-01
  2.00883283E-01 -2.56995157E-02 -1.00441653E-01  1.28496613E-02 -1.00441653E-01
  1.28496613E-02 -3.38038600E-17 -3.17357195E-17  4.23133848E-17 -1.34013787E-16
 -8.62210102E-17  1.18630299E-17  2.24043364E-17  2.11771442E-16  1.00965771E-16
 -4.39056598E-17  3.52599470E-18 -2.33585577E-19  6.15968807E-01  7.87770544E-01
 -1.48959481E-16  4.12049348E-17  1.27339379E-16  4.19308971E-17  7.82974147E-17
 -1.09602013E-16 -1.04924822E-16  9.72420208E-01  9.42954719E-02  1.57844993E-15
  7.20762461E-08 -1.34626693E-01 -1.66387869E-02  1.93853119E-15  1.80866359E-08
 -7.79674744E-02 -5.62492732E-02 -5.62491546E-02  2.69541972E-02  5.86708039E-16
 -4.12761371E-16 -1.71228763E-07 -7.46714542E-02 -5.59523594E-02 -7.46715371E-02
 -5.59523969E-02 -7.46715371E-02 -5.59523969E-02 -2.17556889E-01  3.85603266E-01
  1.84797385E-16  1.36649947E-06 -4.53619492E-01 -9.69439360E-02  2.37525232E-16
  4.72191255E-07 -1.27559486E-01  6.71068087E-02  6.71105966E-02  6.86989962E-01
  1.66441096E-16 -1.16607140E-16 -1.43433138E-06 -2.23755258E-01 -2.47090566E-01
 -2.23756848E-01 -2.47090886E-01 -2.23756848E-01 -2.47090886E-01 -5.02522358E-07
  1.25344372E-06 -4.42116502E-16 -3.77718761E-01 -1.44552609E-06 -3.47378804E-07
 -2.09072846E-17 -1.40421938E-01 -3.42374952E-07  6.50922931E-01 -6.50922846E-01
  2.51890003E-06  3.25781404E-16 -1.47559689E-16  3.93691951E-01 -2.96620411E-01
 -4.21349343E-02  1.48309244E-01  2.10662409E-02  1.48309244E-01  2.10662409E-02
  5.03386465E-04 -2.52272608E-01 -9.35089905E-16  1.53478056E-07  2.62011390E-01
  1.60998521E-01 -2.06006690E-16 -4.15489756E-08 -7.11849885E-02 -5.80094193E-01
 -5.80093740E-01  6.48481300E-01 -1.54717244E-16  1.69323862E-17  9.03273675E-09
 -8.01013187E-02  2.67976243E-01 -8.01013443E-02  2.67976162E-01 -8.01013443E-02
  2.67976162E-01  2.06279488E-16 -5.20946642E-15  1.08618499E+00  1.88475326E-14